LAMMPS (30 Jun 2020)
Lattice spacing in x,y,z = 2.8665 2.8665 2.8665
Created orthogonal box = (0.0 0.0 0.0) to (28.665 28.665 28.665)
  2 by 2 by 2 MPI processor grid
Created 2000 atoms
  create_atoms CPU = 0.000 seconds
Setting atom values ...
  2000 settings made for spin
Neighbor list info ...
  update every 10 steps, delay 20 steps, check yes
  max neighbors/atom: 2000, page size: 100000
  master list distance cutoff = 5.7733670002446
  ghost atom cutoff = 5.7733670002446
  binsize = 2.8866835001223, bins = 10.0 10.0 10.0
  2 neighbor lists, perpetual/occasional/extra = 2 0 0
  (1) pair eam/alloy, perpetual, half/full from (2)
      attributes: half, newton on
      pair build: halffull/newton
      stencil: none
      bin: none
  (2) pair spin/exchange, perpetual
      attributes: full, newton on
      pair build: full/bin/atomonly
      stencil: full/bin/3d
      bin: standard
Setting up Verlet run ...
  Unit style    : metal
  Current step  : 0
  Time step     : 0.0001
Per MPI rank memory allocation (min/avg/max) = 7.827 | 7.827 | 7.827 Mbytes
Step Time v_magnorm v_tmag Temp v_emag KinEng PotEng Press TotEng 
       0            0            1            0    100.00358   -222.33076    25.840028   -8782.3309    1171.8608   -8756.4909 
    5000          0.5   0.95826213    97.289358    100.00358    -205.8172    25.840028   -8765.8173    1171.8608   -8739.9773 
   10000            1   0.95421982    101.56105    100.00358   -204.76819    25.840028   -8764.7683    1171.8608   -8738.9283 
   15000          1.5   0.95260356    100.85132    100.00358   -204.75002    25.840028   -8764.7502    1171.8608   -8738.9101 
   20000            2   0.95229687    99.111674    100.00358   -205.02216    25.840028   -8765.0223    1171.8608   -8739.1823 
   25000          2.5   0.94828155    98.753391    100.00358    -204.6778    25.840028   -8764.6779    1171.8608   -8738.8379 
   30000            3   0.95004051    98.891749    100.00358   -205.02727    25.840028   -8765.0274    1171.8608   -8739.1874 
   35000          3.5   0.95192102    99.615009    100.00358   -205.04285    25.840028    -8765.043    1171.8608    -8739.203 
   40000            4   0.95133946    97.041165    100.00358   -205.26811    25.840028   -8765.2683    1171.8608   -8739.4282 
   45000          4.5   0.95194317    97.721061    100.00358   -205.16851    25.840028   -8765.1686    1171.8608   -8739.3286 
   50000            5   0.95312474    98.083468    100.00358   -205.23248    25.840028   -8765.2326    1171.8608   -8739.3926 
   55000          5.5   0.95010639    102.21581    100.00358    -204.3915    25.840028   -8764.3916    1171.8608   -8738.5516 
   60000            6   0.94998144    101.58935    100.00358   -204.50912    25.840028   -8764.5093    1171.8608   -8738.6692 
   65000          6.5   0.95026079    100.65507    100.00358    -204.8064    25.840028   -8764.8065    1171.8608   -8738.9665 
   70000            7   0.94990141    96.966324    100.00358   -205.32054    25.840028   -8765.3207    1171.8608   -8739.4807 
   75000          7.5   0.95013672    96.656412    100.00358   -205.27239    25.840028   -8765.2725    1171.8608   -8739.4325 
   80000            8   0.94895776    98.715493    100.00358   -204.95958    25.840028   -8764.9597    1171.8608   -8739.1197 
   85000          8.5   0.94573868    101.91664    100.00358   -204.25289    25.840028    -8764.253    1171.8608    -8738.413 
   90000            9   0.94875414    98.707776    100.00358   -204.88356    25.840028   -8764.8837    1171.8608   -8739.0437 
   95000          9.5   0.95002874    102.06551    100.00358   -204.57567    25.840028   -8764.5758    1171.8608   -8738.7358 
  100000           10   0.94971853    103.31934    100.00358   -204.24604    25.840028   -8764.2462    1171.8608   -8738.4062 
Loop time of 235.968 on 8 procs for 100000 steps with 2000 atoms

Performance: 3.662 ns/day, 6.555 hours/ns, 423.787 timesteps/s
99.5% CPU use with 8 MPI tasks x no OpenMP threads

MPI task timing breakdown:
Section |  min time  |  avg time  |  max time  |%varavg| %total
---------------------------------------------------------------
Pair    | 55.696     | 56.801     | 57.415     |   6.9 | 24.07
Neigh   | 0          | 0          | 0          |   0.0 |  0.00
Comm    | 7.8548     | 8.5012     | 9.7401     |  19.6 |  3.60
Output  | 3.1676     | 3.2116     | 3.2498     |   1.4 |  1.36
Modify  | 166.78     | 166.98     | 167.18     |   1.0 | 70.76
Other   |            | 0.4743     |            |       |  0.20

Nlocal:    250.0 ave 250.0 max 250.0 min
Histogram: 8 0 0 0 0 0 0 0 0 0
Nghost:    1479.0 ave 1479.0 max 1479.0 min
Histogram: 8 0 0 0 0 0 0 0 0 0
Neighs:    8000.0 ave 8000.0 max 8000.0 min
Histogram: 8 0 0 0 0 0 0 0 0 0
FullNghs:  16000.0 ave 16000.0 max 16000.0 min
Histogram: 8 0 0 0 0 0 0 0 0 0

Total # of neighbors = 128000
Ave neighs/atom = 64.0
Neighbor list builds = 0
Dangerous builds = 0

Please see the log.cite file for references relevant to this simulation

Total wall time: 0:03:55
