LAMMPS (30 Jun 2020)
Lattice spacing in x,y,z = 2.8665 2.8665 2.8665
Created orthogonal box = (0.0 0.0 0.0) to (28.665 28.665 28.665)
  2 by 2 by 2 MPI processor grid
Created 2000 atoms
  create_atoms CPU = 0.001 seconds
Setting atom values ...
  2000 settings made for spin
Neighbor list info ...
  update every 10 steps, delay 20 steps, check yes
  max neighbors/atom: 2000, page size: 100000
  master list distance cutoff = 5.7733670002446
  ghost atom cutoff = 5.7733670002446
  binsize = 2.8866835001223, bins = 10.0 10.0 10.0
  2 neighbor lists, perpetual/occasional/extra = 2 0 0
  (1) pair eam/alloy, perpetual, half/full from (2)
      attributes: half, newton on
      pair build: halffull/newton
      stencil: none
      bin: none
  (2) pair spin/exchange, perpetual
      attributes: full, newton on
      pair build: full/bin/atomonly
      stencil: full/bin/3d
      bin: standard
Setting up Verlet run ...
  Unit style    : metal
  Current step  : 0
  Time step     : 0.0001
Per MPI rank memory allocation (min/avg/max) = 7.827 | 7.827 | 7.827 Mbytes
Step Time v_magnorm v_tmag Temp v_emag KinEng PotEng Press TotEng 
       0            0            1            0    200.00716   -222.33076    51.680057   -8782.3309    2343.6682   -8730.6508 
    5000          0.5   0.91258313    190.76519    200.00716   -188.82266    51.680057   -8748.8228    2343.6682   -8697.1427 
   10000            1   0.90428309    198.35678    200.00716   -187.01078    51.680057   -8747.0109    2343.6682   -8695.3309 
   15000          1.5   0.90301494    196.99012    200.00716   -187.19894    51.680057   -8747.1991    2343.6682    -8695.519 
   20000            2   0.90222517     195.6425    200.00716   -187.37379    51.680057   -8747.3739    2343.6682   -8695.6939 
   25000          2.5   0.89474983    203.00486    200.00716   -185.82659    51.680057   -8745.8267    2343.6682   -8694.1467 
   30000            3   0.89946956    200.33377    200.00716   -186.54485    51.680057    -8746.545    2343.6682   -8694.8649 
   35000          3.5   0.89702815    203.20913    200.00716   -185.87154    51.680057   -8745.8717    2343.6682   -8694.1916 
   40000            4   0.89701503     200.2425    200.00716   -186.36812    51.680057   -8746.3683    2343.6682   -8694.6882 
   45000          4.5    0.8969362    200.63076    200.00716   -186.19141    51.680057   -8746.1916    2343.6682   -8694.5115 
   50000            5   0.89223151    203.18035    200.00716   -185.35548    51.680057   -8745.3556    2343.6682   -8693.6756 
   55000          5.5   0.89579442    200.67966    200.00716   -186.14052    51.680057   -8746.1407    2343.6682   -8694.4606 
   60000            6   0.89676149    199.11341    200.00716   -186.53762    51.680057   -8746.5378    2343.6682   -8694.8577 
   65000          6.5   0.89420845    202.73172    200.00716   -185.70919    51.680057   -8745.7093    2343.6682   -8694.0293 
   70000            7   0.89091384    205.35276    200.00716   -185.18403    51.680057   -8745.1842    2343.6682   -8693.5041 
   75000          7.5   0.89147034    204.94492    200.00716   -185.14425    51.680057   -8745.1444    2343.6682   -8693.4643 
   80000            8   0.89241094    203.65457    200.00716   -185.54664    51.680057   -8745.5468    2343.6682   -8693.8667 
   85000          8.5   0.89098832    201.07127    200.00716   -185.60008    51.680057   -8745.6002    2343.6682   -8693.9202 
   90000            9   0.89475966    197.39509    200.00716   -186.69679    51.680057   -8746.6969    2343.6682   -8695.0169 
   95000          9.5   0.89339982     205.0526    200.00716   -185.41351    51.680057   -8745.4137    2343.6682   -8693.7336 
  100000           10   0.89002949     206.4139    200.00716   -185.19295    51.680057   -8745.1931    2343.6682    -8693.513 
Loop time of 281.272 on 8 procs for 100000 steps with 2000 atoms

Performance: 3.072 ns/day, 7.813 hours/ns, 355.528 timesteps/s
98.8% CPU use with 8 MPI tasks x no OpenMP threads

MPI task timing breakdown:
Section |  min time  |  avg time  |  max time  |%varavg| %total
---------------------------------------------------------------
Pair    | 57.619     | 58.562     | 59.261     |   6.4 | 20.82
Neigh   | 0          | 0          | 0          |   0.0 |  0.00
Comm    | 12.483     | 13.012     | 13.753     |  13.1 |  4.63
Output  | 3.2465     | 3.2824     | 3.3367     |   1.6 |  1.17
Modify  | 205.46     | 205.98     | 206.4      |   2.7 | 73.23
Other   |            | 0.4357     |            |       |  0.15

Nlocal:    250.0 ave 250.0 max 250.0 min
Histogram: 8 0 0 0 0 0 0 0 0 0
Nghost:    1479.0 ave 1479.0 max 1479.0 min
Histogram: 8 0 0 0 0 0 0 0 0 0
Neighs:    8000.0 ave 8000.0 max 8000.0 min
Histogram: 8 0 0 0 0 0 0 0 0 0
FullNghs:  16000.0 ave 16000.0 max 16000.0 min
Histogram: 8 0 0 0 0 0 0 0 0 0

Total # of neighbors = 128000
Ave neighs/atom = 64.0
Neighbor list builds = 0
Dangerous builds = 0

Please see the log.cite file for references relevant to this simulation

Total wall time: 0:04:41
