LAMMPS (30 Jun 2020)
Lattice spacing in x,y,z = 2.8665 2.8665 2.8665
Created orthogonal box = (0.0 0.0 0.0) to (28.665 28.665 28.665)
  2 by 2 by 2 MPI processor grid
Created 2000 atoms
  create_atoms CPU = 0.001 seconds
Setting atom values ...
  2000 settings made for spin
Neighbor list info ...
  update every 10 steps, delay 20 steps, check yes
  max neighbors/atom: 2000, page size: 100000
  master list distance cutoff = 5.7733670002446
  ghost atom cutoff = 5.7733670002446
  binsize = 2.8866835001223, bins = 10.0 10.0 10.0
  2 neighbor lists, perpetual/occasional/extra = 2 0 0
  (1) pair eam/alloy, perpetual, half/full from (2)
      attributes: half, newton on
      pair build: halffull/newton
      stencil: none
      bin: none
  (2) pair spin/exchange, perpetual
      attributes: full, newton on
      pair build: full/bin/atomonly
      stencil: full/bin/3d
      bin: standard
Setting up Verlet run ...
  Unit style    : metal
  Current step  : 0
  Time step     : 0.0001
Per MPI rank memory allocation (min/avg/max) = 7.827 | 7.827 | 7.827 Mbytes
Step Time v_magnorm v_tmag Temp v_emag KinEng PotEng Press TotEng 
       0            0            1            0    300.01074   -222.33076    77.520085   -8782.3309    3515.4757   -8704.8108 
    5000          0.5   0.86980426    271.10971    300.01074   -173.53682    77.520085    -8733.537    3515.4757   -8656.0169 
   10000            1   0.84920894    303.25861    300.01074   -167.28927    77.520085   -8727.2894    3515.4757   -8649.7693 
   15000          1.5   0.84480372    307.88356    300.01074   -165.88433    77.520085   -8725.8845    3515.4757   -8648.3644 
   20000            2   0.84347186    308.32973    300.01074   -166.24362    77.520085   -8726.2438    3515.4757   -8648.7237 
   25000          2.5   0.84823836    293.16293    300.01074   -168.65973    77.520085   -8728.6599    3515.4757   -8651.1398 
   30000            3   0.83589272    303.88215    300.01074   -166.14963    77.520085   -8726.1498    3515.4757   -8648.6297 
   35000          3.5   0.83954758    296.18363    300.01074   -167.44937    77.520085   -8727.4495    3515.4757   -8649.9294 
   40000            4   0.83962192    296.03255    300.01074   -167.56822    77.520085   -8727.5684    3515.4757   -8650.0483 
   45000          4.5   0.84121574    294.42741    300.01074   -168.07179    77.520085   -8728.0719    3515.4757   -8650.5518 
   50000            5   0.83129987    309.10023    300.01074   -165.01566    77.520085   -8725.0158    3515.4757   -8647.4957 
   55000          5.5   0.83279453     297.8453    300.01074   -166.72836    77.520085   -8726.7285    3515.4757   -8649.2084 
   60000            6   0.83171442    307.45364    300.01074    -165.4987    77.520085   -8725.4988    3515.4757   -8647.9788 
   65000          6.5   0.82795608    305.31365    300.01074   -165.56839    77.520085   -8725.5685    3515.4757   -8648.0484 
   70000            7   0.82754103    303.33787    300.01074   -165.83579    77.520085   -8725.8359    3515.4757   -8648.3158 
   75000          7.5   0.83740276    285.00903    300.01074    -169.1581    77.520085   -8729.1582    3515.4757   -8651.6382 
   80000            8   0.83433549    290.86672    300.01074   -168.10809    77.520085   -8728.1082    3515.4757   -8650.5881 
   85000          8.5    0.8381849    287.90366    300.01074   -168.68776    77.520085   -8728.6879    3515.4757   -8651.1678 
   90000            9   0.83419864    295.02915    300.01074   -167.23331    77.520085   -8727.2334    3515.4757   -8649.7134 
   95000          9.5   0.83435745    296.41327    300.01074   -167.33751    77.520085   -8727.3377    3515.4757   -8649.8176 
  100000           10   0.83368704    300.84342    300.01074   -166.07339    77.520085   -8726.0735    3515.4757   -8648.5534 
Loop time of 272.418 on 8 procs for 100000 steps with 2000 atoms

Performance: 3.172 ns/day, 7.567 hours/ns, 367.082 timesteps/s
99.5% CPU use with 8 MPI tasks x no OpenMP threads

MPI task timing breakdown:
Section |  min time  |  avg time  |  max time  |%varavg| %total
---------------------------------------------------------------
Pair    | 56.124     | 57.023     | 57.688     |   7.6 | 20.93
Neigh   | 0          | 0          | 0          |   0.0 |  0.00
Comm    | 9.6987     | 10.721     | 12.16      |  23.4 |  3.94
Output  | 2.3862     | 2.9953     | 3.6266     |  29.7 |  1.10
Modify  | 200.08     | 201.31     | 202.21     |   4.8 | 73.90
Other   |            | 0.3737     |            |       |  0.14

Nlocal:    250.0 ave 250.0 max 250.0 min
Histogram: 8 0 0 0 0 0 0 0 0 0
Nghost:    1479.0 ave 1479.0 max 1479.0 min
Histogram: 8 0 0 0 0 0 0 0 0 0
Neighs:    8000.0 ave 8000.0 max 8000.0 min
Histogram: 8 0 0 0 0 0 0 0 0 0
FullNghs:  16000.0 ave 16000.0 max 16000.0 min
Histogram: 8 0 0 0 0 0 0 0 0 0

Total # of neighbors = 128000
Ave neighs/atom = 64.0
Neighbor list builds = 0
Dangerous builds = 0

Please see the log.cite file for references relevant to this simulation

Total wall time: 0:04:32
