LAMMPS (30 Jun 2020)
Lattice spacing in x,y,z = 2.8665 2.8665 2.8665
Created orthogonal box = (0.0 0.0 0.0) to (28.665 28.665 28.665)
  2 by 2 by 2 MPI processor grid
Created 2000 atoms
  create_atoms CPU = 0.000 seconds
Setting atom values ...
  2000 settings made for spin
Neighbor list info ...
  update every 10 steps, delay 20 steps, check yes
  max neighbors/atom: 2000, page size: 100000
  master list distance cutoff = 5.7733670002446
  ghost atom cutoff = 5.7733670002446
  binsize = 2.8866835001223, bins = 10.0 10.0 10.0
  2 neighbor lists, perpetual/occasional/extra = 2 0 0
  (1) pair eam/alloy, perpetual, half/full from (2)
      attributes: half, newton on
      pair build: halffull/newton
      stencil: none
      bin: none
  (2) pair spin/exchange, perpetual
      attributes: full, newton on
      pair build: full/bin/atomonly
      stencil: full/bin/3d
      bin: standard
Setting up Verlet run ...
  Unit style    : metal
  Current step  : 0
  Time step     : 0.0001
Per MPI rank memory allocation (min/avg/max) = 7.827 | 7.827 | 7.827 Mbytes
Step Time v_magnorm v_tmag Temp v_emag KinEng PotEng Press TotEng 
       0            0            1            0    350.01253   -222.33076    90.440099   -8782.3309    4101.3794   -8691.8908 
    5000          0.5   0.84389998    324.23046    350.01253   -164.02697    90.440099   -8724.0271    4101.3794    -8633.587 
   10000            1   0.81827912     349.5218    350.01253   -157.23193    90.440099   -8717.2321    4101.3794    -8626.792 
   15000          1.5   0.80797633    356.94365    350.01253   -155.84022    90.440099   -8715.8404    4101.3794   -8625.4003 
   20000            2    0.7973287    365.00204    350.01253   -154.01435    90.440099   -8714.0145    4101.3794   -8623.5744 
   25000          2.5    0.8016081    351.99924    350.01253   -156.02594    90.440099   -8716.0261    4101.3794    -8625.586 
   30000            3   0.79921625    340.50246    350.01253   -157.37369    90.440099   -8717.3738    4101.3794   -8626.9337 
   35000          3.5   0.79794341    349.06931    350.01253   -155.89676    90.440099   -8715.8969    4101.3794   -8625.4568 
   40000            4   0.80100076    354.97973    350.01253   -156.16579    90.440099   -8716.1659    4101.3794   -8625.7258 
   45000          4.5   0.80284112    351.42535    350.01253   -156.73824    90.440099   -8716.7384    4101.3794   -8626.2983 
   50000            5   0.79570294    353.16513    350.01253   -155.50253    90.440099   -8715.5027    4101.3794   -8625.0626 
   55000          5.5   0.79256987    354.25813    350.01253    -155.0924    90.440099   -8715.0925    4101.3794   -8624.6524 
   60000            6   0.79743848    348.80645    350.01253   -155.87386    90.440099    -8715.874    4101.3794   -8625.4339 
   65000          6.5   0.79000977    353.39389    350.01253    -154.7849    90.440099    -8714.785    4101.3794   -8624.3449 
   70000            7    0.8024965    344.58611    350.01253   -157.28979    90.440099   -8717.2899    4101.3794   -8626.8498 
   75000          7.5   0.81052439    334.67981    350.01253   -159.19144    90.440099   -8719.1916    4101.3794   -8628.7515 
   80000            8   0.80379124    346.49126    350.01253   -157.41959    90.440099   -8717.4197    4101.3794   -8626.9796 
   85000          8.5   0.79721875    348.33082    350.01253   -156.00475    90.440099   -8716.0049    4101.3794   -8625.5648 
   90000            9   0.79403116    362.15441    350.01253   -154.33994    90.440099   -8714.3401    4101.3794      -8623.9 
   95000          9.5   0.80364566    353.39756    350.01253   -155.83494    90.440099   -8715.8351    4101.3794    -8625.395 
  100000           10   0.80685492    350.23578    350.01253   -156.50604    90.440099   -8716.5062    4101.3794   -8626.0661 
Loop time of 292.845 on 8 procs for 100000 steps with 2000 atoms

Performance: 2.950 ns/day, 8.135 hours/ns, 341.477 timesteps/s
98.2% CPU use with 8 MPI tasks x no OpenMP threads

MPI task timing breakdown:
Section |  min time  |  avg time  |  max time  |%varavg| %total
---------------------------------------------------------------
Pair    | 57.673     | 58.843     | 59.722     |   8.3 | 20.09
Neigh   | 0          | 0          | 0          |   0.0 |  0.00
Comm    | 13.357     | 14.455     | 15.495     |  17.7 |  4.94
Output  | 3.0706     | 3.106      | 3.1458     |   1.5 |  1.06
Modify  | 215.67     | 216.02     | 216.38     |   1.6 | 73.77
Other   |            | 0.4223     |            |       |  0.14

Nlocal:    250.0 ave 250.0 max 250.0 min
Histogram: 8 0 0 0 0 0 0 0 0 0
Nghost:    1479.0 ave 1479.0 max 1479.0 min
Histogram: 8 0 0 0 0 0 0 0 0 0
Neighs:    8000.0 ave 8000.0 max 8000.0 min
Histogram: 8 0 0 0 0 0 0 0 0 0
FullNghs:  16000.0 ave 16000.0 max 16000.0 min
Histogram: 8 0 0 0 0 0 0 0 0 0

Total # of neighbors = 128000
Ave neighs/atom = 64.0
Neighbor list builds = 0
Dangerous builds = 0

Please see the log.cite file for references relevant to this simulation

Total wall time: 0:04:52
