LAMMPS (30 Jun 2020)
Lattice spacing in x,y,z = 2.8665 2.8665 2.8665
Created orthogonal box = (0.0 0.0 0.0) to (28.665 28.665 28.665)
  2 by 2 by 2 MPI processor grid
Created 2000 atoms
  create_atoms CPU = 0.001 seconds
Setting atom values ...
  2000 settings made for spin
Neighbor list info ...
  update every 10 steps, delay 20 steps, check yes
  max neighbors/atom: 2000, page size: 100000
  master list distance cutoff = 5.7733670002446
  ghost atom cutoff = 5.7733670002446
  binsize = 2.8866835001223, bins = 10.0 10.0 10.0
  2 neighbor lists, perpetual/occasional/extra = 2 0 0
  (1) pair eam/alloy, perpetual, half/full from (2)
      attributes: half, newton on
      pair build: halffull/newton
      stencil: none
      bin: none
  (2) pair spin/exchange, perpetual
      attributes: full, newton on
      pair build: full/bin/atomonly
      stencil: full/bin/3d
      bin: standard
Setting up Verlet run ...
  Unit style    : metal
  Current step  : 0
  Time step     : 0.0001
Per MPI rank memory allocation (min/avg/max) = 7.827 | 7.827 | 7.827 Mbytes
Step Time v_magnorm v_tmag Temp v_emag KinEng PotEng Press TotEng 
       0            0            1            0    400.01433   -222.33076    103.36011   -8782.3309    4687.2831   -8678.9708 
    5000          0.5   0.82302077    358.68649    400.01433   -157.00111    103.36011   -8717.0012    4687.2831   -8613.6411 
   10000            1   0.79256191    399.83507    400.01433   -148.28898    103.36011   -8708.2891    4687.2831    -8604.929 
   15000          1.5   0.77369958    405.48657    400.01433   -145.03853    103.36011   -8705.0387    4687.2831   -8601.6786 
   20000            2   0.77201175    396.11542    400.01433   -146.68979    103.36011   -8706.6899    4687.2831   -8603.3298 
   25000          2.5   0.76442276    398.76384    400.01433   -145.44333    103.36011   -8705.4435    4687.2831   -8602.0834 
   30000            3   0.75649904    400.35226    400.01433   -144.13793    103.36011   -8704.1381    4687.2831    -8600.778 
   35000          3.5   0.75339095    395.21889    400.01433   -143.85405    103.36011   -8703.8542    4687.2831   -8600.4941 
   40000            4   0.76466221    400.57021    400.01433   -145.68061    103.36011   -8705.6808    4687.2831   -8602.3206 
   45000          4.5   0.76460701    393.76389    400.01433   -145.34264    103.36011   -8705.3428    4687.2831   -8601.9827 
   50000            5   0.75965533    398.68379    400.01433   -144.64735    103.36011   -8704.6475    4687.2831   -8601.2874 
   55000          5.5   0.76458241     394.1615    400.01433   -145.03595    103.36011   -8705.0361    4687.2831    -8601.676 
   60000            6   0.77101465    394.99802    400.01433   -145.52045    103.36011   -8705.5206    4687.2831   -8602.1605 
   65000          6.5   0.77144227    401.75293    400.01433   -145.37274    103.36011   -8705.3729    4687.2831   -8602.0128 
   70000            7   0.76795947    403.06759    400.01433   -144.70397    103.36011   -8704.7041    4687.2831    -8601.344 
   75000          7.5   0.75654624    396.09357    400.01433   -145.43285    103.36011    -8705.433    4687.2831   -8602.0729 
   80000            8   0.75866705    396.06533    400.01433   -145.98543    103.36011   -8705.9856    4687.2831   -8602.6255 
   85000          8.5   0.76613841    388.53588    400.01433    -147.0799    103.36011     -8707.08    4687.2831   -8603.7199 
   90000            9   0.75622343    398.68858    400.01433   -143.88546    103.36011   -8703.8856    4687.2831   -8600.5255 
   95000          9.5    0.7553053    411.48408    400.01433   -142.52984    103.36011     -8702.53    4687.2831   -8599.1699 
  100000           10   0.76972323    397.54623    400.01433   -146.37037    103.36011   -8706.3705    4687.2831   -8603.0104 
Loop time of 271.437 on 8 procs for 100000 steps with 2000 atoms

Performance: 3.183 ns/day, 7.540 hours/ns, 368.410 timesteps/s
99.0% CPU use with 8 MPI tasks x no OpenMP threads

MPI task timing breakdown:
Section |  min time  |  avg time  |  max time  |%varavg| %total
---------------------------------------------------------------
Pair    | 56.232     | 57.387     | 57.956     |   7.2 | 21.14
Neigh   | 0          | 0          | 0          |   0.0 |  0.00
Comm    | 10.609     | 11.227     | 12.418     |  17.7 |  4.14
Output  | 2.5316     | 2.9447     | 3.0342     |   9.2 |  1.08
Modify  | 199.16     | 199.45     | 199.95     |   1.6 | 73.48
Other   |            | 0.4231     |            |       |  0.16

Nlocal:    250.0 ave 250.0 max 250.0 min
Histogram: 8 0 0 0 0 0 0 0 0 0
Nghost:    1479.0 ave 1479.0 max 1479.0 min
Histogram: 8 0 0 0 0 0 0 0 0 0
Neighs:    8000.0 ave 8000.0 max 8000.0 min
Histogram: 8 0 0 0 0 0 0 0 0 0
FullNghs:  16000.0 ave 16000.0 max 16000.0 min
Histogram: 8 0 0 0 0 0 0 0 0 0

Total # of neighbors = 128000
Ave neighs/atom = 64.0
Neighbor list builds = 0
Dangerous builds = 0

Please see the log.cite file for references relevant to this simulation

Total wall time: 0:04:31
