LAMMPS (30 Jun 2020)
Lattice spacing in x,y,z = 2.8665 2.8665 2.8665
Created orthogonal box = (0.0 0.0 0.0) to (28.665 28.665 28.665)
  2 by 2 by 2 MPI processor grid
Created 2000 atoms
  create_atoms CPU = 0.001 seconds
Setting atom values ...
  2000 settings made for spin
Neighbor list info ...
  update every 10 steps, delay 20 steps, check yes
  max neighbors/atom: 2000, page size: 100000
  master list distance cutoff = 5.7733670002446
  ghost atom cutoff = 5.7733670002446
  binsize = 2.8866835001223, bins = 10.0 10.0 10.0
  2 neighbor lists, perpetual/occasional/extra = 2 0 0
  (1) pair eam/alloy, perpetual, half/full from (2)
      attributes: half, newton on
      pair build: halffull/newton
      stencil: none
      bin: none
  (2) pair spin/exchange, perpetual
      attributes: full, newton on
      pair build: full/bin/atomonly
      stencil: full/bin/3d
      bin: standard
Setting up Verlet run ...
  Unit style    : metal
  Current step  : 0
  Time step     : 0.0001
Per MPI rank memory allocation (min/avg/max) = 7.827 | 7.827 | 7.827 Mbytes
Step Time v_magnorm v_tmag Temp v_emag KinEng PotEng Press TotEng 
       0            0            1            0     550.0197   -222.33076    142.12016   -8782.3309    6444.9942   -8640.2107 
    5000          0.5   0.74897371    489.87864     550.0197   -130.91415    142.12016   -8690.9143    6444.9942   -8548.7941 
   10000            1   0.67556278    530.26334     550.0197   -114.66285    142.12016    -8674.663    6444.9942   -8532.5428 
   15000          1.5   0.64426576    550.06712     550.0197   -109.18743    142.12016   -8669.1876    6444.9942   -8527.0674 
   20000            2   0.63764521    555.90943     550.0197   -108.60386    142.12016    -8668.604    6444.9942   -8526.4838 
   25000          2.5    0.6386017    532.44142     550.0197    -110.3835    142.12016   -8670.3836    6444.9942   -8528.2635 
   30000            3   0.63748175    539.42755     550.0197   -111.15311    142.12016   -8671.1532    6444.9942   -8529.0331 
   35000          3.5   0.62047212    541.77386     550.0197   -107.43194    142.12016   -8667.4321    6444.9942   -8525.3119 
   40000            4   0.62526567    557.89437     550.0197   -108.22299    142.12016   -8668.2231    6444.9942    -8526.103 
   45000          4.5   0.63513866    534.15806     550.0197   -110.96427    142.12016   -8670.9644    6444.9942   -8528.8442 
   50000            5   0.63574059    548.18481     550.0197   -110.92538    142.12016   -8670.9255    6444.9942   -8528.8054 
   55000          5.5   0.62319338    544.19078     550.0197   -108.13035    142.12016   -8668.1305    6444.9942   -8526.0103 
   60000            6   0.60850364    563.57531     550.0197   -104.73584    142.12016    -8664.736    6444.9942   -8522.6158 
   65000          6.5   0.60481067    553.53857     550.0197   -105.65303    142.12016   -8665.6532    6444.9942    -8523.533 
   70000            7   0.59774403    561.82378     550.0197   -103.68146    142.12016   -8663.6816    6444.9942   -8521.5614 
   75000          7.5   0.59888598    552.14994     550.0197   -105.91749    142.12016   -8665.9176    6444.9942   -8523.7975 
   80000            8   0.59120491    540.07398     550.0197   -104.92437    142.12016   -8664.9245    6444.9942   -8522.8043 
   85000          8.5   0.59514682    558.99331     550.0197   -103.69159    142.12016   -8663.6917    6444.9942   -8521.5716 
   90000            9   0.60850331    549.93487     550.0197   -107.91265    142.12016   -8667.9128    6444.9942   -8525.7926 
   95000          9.5   0.58038845    556.37839     550.0197   -103.90747    142.12016   -8663.9076    6444.9942   -8521.7874 
  100000           10   0.58985288    543.32383     550.0197   -106.49402    142.12016   -8666.4942    6444.9942    -8524.374 
Loop time of 273.116 on 8 procs for 100000 steps with 2000 atoms

Performance: 3.163 ns/day, 7.587 hours/ns, 366.145 timesteps/s
99.7% CPU use with 8 MPI tasks x no OpenMP threads

MPI task timing breakdown:
Section |  min time  |  avg time  |  max time  |%varavg| %total
---------------------------------------------------------------
Pair    | 55.792     | 56.666     | 57.35      |   6.9 | 20.75
Neigh   | 0          | 0          | 0          |   0.0 |  0.00
Comm    | 9.536      | 10.102     | 11.167     |  17.5 |  3.70
Output  | 3.7118     | 3.7527     | 3.8503     |   2.1 |  1.37
Modify  | 201.74     | 202.23     | 202.83     |   2.2 | 74.05
Other   |            | 0.363      |            |       |  0.13

Nlocal:    250.0 ave 250.0 max 250.0 min
Histogram: 8 0 0 0 0 0 0 0 0 0
Nghost:    1479.0 ave 1479.0 max 1479.0 min
Histogram: 8 0 0 0 0 0 0 0 0 0
Neighs:    8000.0 ave 8000.0 max 8000.0 min
Histogram: 8 0 0 0 0 0 0 0 0 0
FullNghs:  16000.0 ave 16000.0 max 16000.0 min
Histogram: 8 0 0 0 0 0 0 0 0 0

Total # of neighbors = 128000
Ave neighs/atom = 64.0
Neighbor list builds = 0
Dangerous builds = 0

Please see the log.cite file for references relevant to this simulation

Total wall time: 0:04:33
