LAMMPS (30 Jun 2020)
Lattice spacing in x,y,z = 2.8665 2.8665 2.8665
Created orthogonal box = (0.0 0.0 0.0) to (28.665 28.665 28.665)
  2 by 2 by 2 MPI processor grid
Created 2000 atoms
  create_atoms CPU = 0.000 seconds
Setting atom values ...
  2000 settings made for spin
Neighbor list info ...
  update every 10 steps, delay 20 steps, check yes
  max neighbors/atom: 2000, page size: 100000
  master list distance cutoff = 5.7733670002446
  ghost atom cutoff = 5.7733670002446
  binsize = 2.8866835001223, bins = 10.0 10.0 10.0
  2 neighbor lists, perpetual/occasional/extra = 2 0 0
  (1) pair eam/alloy, perpetual, half/full from (2)
      attributes: half, newton on
      pair build: halffull/newton
      stencil: none
      bin: none
  (2) pair spin/exchange, perpetual
      attributes: full, newton on
      pair build: full/bin/atomonly
      stencil: full/bin/3d
      bin: standard
Setting up Verlet run ...
  Unit style    : metal
  Current step  : 0
  Time step     : 0.0001
Per MPI rank memory allocation (min/avg/max) = 7.827 | 7.827 | 7.827 Mbytes
Step Time v_magnorm v_tmag Temp v_emag KinEng PotEng Press TotEng 
       0            0            1            0    50.001791   -222.33076    12.920014   -8782.3309     585.9571   -8769.4109 
    5000          0.5   0.97904021     49.53474    50.001791   -213.97757    12.920014   -8773.9777     585.9571   -8761.0577 
   10000            1   0.97751299    50.192116    50.001791   -213.71823    12.920014   -8773.7184     585.9571   -8760.7984 
   15000          1.5   0.97689358    50.407213    50.001791   -213.66209    12.920014   -8773.6622     585.9571   -8760.7422 
   20000            2   0.97639816    50.571454    50.001791   -213.59041    12.920014   -8773.5905     585.9571   -8760.6705 
   25000          2.5   0.97554781     50.08647    50.001791   -213.61513    12.920014   -8773.6153     585.9571   -8760.6953 
   30000            3   0.97572131     51.74442    50.001791   -213.49611    12.920014   -8773.4963     585.9571   -8760.5762 
   35000          3.5    0.9763233      52.0419    50.001791   -213.49331    12.920014   -8773.4934     585.9571   -8760.5734 
   40000            4   0.97634345    49.340302    50.001791   -213.80346    12.920014   -8773.8036     585.9571   -8760.8836 
   45000          4.5   0.97650315    48.237896    50.001791   -213.92839    12.920014   -8773.9285     585.9571   -8761.0085 
   50000            5   0.97640996    50.884666    50.001791   -213.58718    12.920014   -8773.5873     585.9571   -8760.6673 
   55000          5.5   0.97581712    49.028642    50.001791     -213.771    12.920014   -8773.7711     585.9571   -8760.8511 
   60000            6    0.9743647    50.997949    50.001791   -213.43863    12.920014   -8773.4388     585.9571   -8760.5188 
   65000          6.5   0.97493741    50.541048    50.001791   -213.57742    12.920014   -8773.5776     585.9571   -8760.6575 
   70000            7   0.97518367    49.002792    50.001791   -213.77048    12.920014   -8773.7706     585.9571   -8760.8506 
   75000          7.5   0.97518246    48.845956    50.001791   -213.78626    12.920014   -8773.7864     585.9571   -8760.8664 
   80000            8   0.97568632    48.862199    50.001791   -213.81275    12.920014   -8773.8129     585.9571   -8760.8929 
   85000          8.5    0.9747645    50.724916    50.001791   -213.45324    12.920014   -8773.4534     585.9571   -8760.5334 
   90000            9    0.9755503    50.957584    50.001791   -213.47171    12.920014   -8773.4718     585.9571   -8760.5518 
   95000          9.5   0.97556516    50.690663    50.001791   -213.58214    12.920014   -8773.5823     585.9571   -8760.6623 
  100000           10   0.97581192    49.434021    50.001791    -213.7694    12.920014   -8773.7695     585.9571   -8760.8495 
Loop time of 268.543 on 8 procs for 100000 steps with 2000 atoms

Performance: 3.217 ns/day, 7.460 hours/ns, 372.380 timesteps/s
99.8% CPU use with 8 MPI tasks x no OpenMP threads

MPI task timing breakdown:
Section |  min time  |  avg time  |  max time  |%varavg| %total
---------------------------------------------------------------
Pair    | 54.862     | 55.857     | 56.466     |   7.1 | 20.80
Neigh   | 0          | 0          | 0          |   0.0 |  0.00
Comm    | 8.5603     | 9.3516     | 10.342     |  17.6 |  3.48
Output  | 4.0968     | 4.1313     | 4.1674     |   1.1 |  1.54
Modify  | 198.5      | 198.85     | 199.26     |   1.6 | 74.05
Other   |            | 0.3504     |            |       |  0.13

Nlocal:    250.0 ave 250.0 max 250.0 min
Histogram: 8 0 0 0 0 0 0 0 0 0
Nghost:    1479.0 ave 1479.0 max 1479.0 min
Histogram: 8 0 0 0 0 0 0 0 0 0
Neighs:    8000.0 ave 8000.0 max 8000.0 min
Histogram: 8 0 0 0 0 0 0 0 0 0
FullNghs:  16000.0 ave 16000.0 max 16000.0 min
Histogram: 8 0 0 0 0 0 0 0 0 0

Total # of neighbors = 128000
Ave neighs/atom = 64.0
Neighbor list builds = 0
Dangerous builds = 0

Please see the log.cite file for references relevant to this simulation

Total wall time: 0:04:28
