LAMMPS (30 Jun 2020)
Lattice spacing in x,y,z = 2.8665 2.8665 2.8665
Created orthogonal box = (0.0 0.0 0.0) to (28.665 28.665 28.665)
  2 by 2 by 2 MPI processor grid
Created 2000 atoms
  create_atoms CPU = 0.011 seconds
Setting atom values ...
  2000 settings made for spin
Neighbor list info ...
  update every 10 steps, delay 20 steps, check yes
  max neighbors/atom: 2000, page size: 100000
  master list distance cutoff = 5.7733670002446
  ghost atom cutoff = 5.7733670002446
  binsize = 2.8866835001223, bins = 10.0 10.0 10.0
  2 neighbor lists, perpetual/occasional/extra = 2 0 0
  (1) pair eam/alloy, perpetual, half/full from (2)
      attributes: half, newton on
      pair build: halffull/newton
      stencil: none
      bin: none
  (2) pair spin/exchange, perpetual
      attributes: full, newton on
      pair build: full/bin/atomonly
      stencil: full/bin/3d
      bin: standard
Setting up Verlet run ...
  Unit style    : metal
  Current step  : 0
  Time step     : 0.0001
Per MPI rank memory allocation (min/avg/max) = 7.827 | 7.827 | 7.827 Mbytes
Step Time v_magnorm v_tmag Temp v_emag KinEng PotEng Press TotEng 
       0            0            1            0    600.02149   -222.33076    155.04017   -8782.3309    7030.8979   -8627.2907 
    5000          0.5   0.73251688    515.59651    600.02149   -125.25713    155.04017   -8685.2573    7030.8979   -8530.2171 
   10000            1     0.673049    561.24899    600.02149    -110.9307    155.04017   -8670.9308    7030.8979   -8515.8907 
   15000          1.5   0.63826414    586.11296    600.02149   -103.60019    155.04017   -8663.6003    7030.8979   -8508.5602 
   20000            2   0.61301058    581.19306    600.02149   -100.42254    155.04017   -8660.4227    7030.8979   -8505.3825 
   25000          2.5   0.60658368    599.12127    600.02149   -98.661705    155.04017   -8658.6618    7030.8979   -8503.6217 
   30000            3   0.60555506    569.80717    600.02149   -100.47798    155.04017   -8660.4781    7030.8979   -8505.4379 
   35000          3.5   0.59099487    574.71559    600.02149   -98.566268    155.04017   -8658.5664    7030.8979   -8503.5262 
   40000            4   0.58630085    585.97912    600.02149    -98.46684    155.04017    -8658.467    7030.8979   -8503.4268 
   45000          4.5   0.57895762     598.3143    600.02149   -96.384654    155.04017   -8656.3848    7030.8979   -8501.3446 
   50000            5   0.57550318    592.07795    600.02149   -96.686307    155.04017   -8656.6864    7030.8979   -8501.6463 
   55000          5.5   0.58922708    582.83093    600.02149   -98.706473    155.04017   -8658.7066    7030.8979   -8503.6664 
   60000            6   0.56749917    608.84593    600.02149   -92.643293    155.04017   -8652.6434    7030.8979   -8497.6033 
   65000          6.5   0.55561682    614.25206    600.02149   -89.813326    155.04017   -8649.8135    7030.8979   -8494.7733 
   70000            7   0.57187269    586.75141    600.02149   -95.556257    155.04017   -8655.5564    7030.8979   -8500.5162 
   75000          7.5   0.57033994    581.64007    600.02149   -96.448873    155.04017    -8656.449    7030.8979   -8501.4088 
   80000            8   0.54233556    579.09041    600.02149   -93.002216    155.04017   -8653.0024    7030.8979   -8497.9622 
   85000          8.5   0.53904523    596.72264    600.02149   -91.301511    155.04017   -8651.3016    7030.8979   -8496.2615 
   90000            9   0.53186701    601.20181    600.02149   -90.238727    155.04017   -8650.2389    7030.8979   -8495.1987 
   95000          9.5   0.50834144    611.53647    600.02149   -88.015724    155.04017   -8648.0159    7030.8979   -8492.9757 
  100000           10    0.5071213    565.05118    600.02149    -91.82258    155.04017   -8651.8227    7030.8979   -8496.7825 
Loop time of 286.103 on 8 procs for 100000 steps with 2000 atoms

Performance: 3.020 ns/day, 7.947 hours/ns, 349.525 timesteps/s
99.4% CPU use with 8 MPI tasks x no OpenMP threads

MPI task timing breakdown:
Section |  min time  |  avg time  |  max time  |%varavg| %total
---------------------------------------------------------------
Pair    | 56.017     | 57.06      | 57.593     |   7.1 | 19.94
Neigh   | 0          | 0          | 0          |   0.0 |  0.00
Comm    | 10.999     | 11.505     | 12.687     |  17.9 |  4.02
Output  | 3.6237     | 3.6536     | 3.6845     |   1.0 |  1.28
Modify  | 213.26     | 213.46     | 213.61     |   0.8 | 74.61
Other   |            | 0.4264     |            |       |  0.15

Nlocal:    250.0 ave 250.0 max 250.0 min
Histogram: 8 0 0 0 0 0 0 0 0 0
Nghost:    1479.0 ave 1479.0 max 1479.0 min
Histogram: 8 0 0 0 0 0 0 0 0 0
Neighs:    8000.0 ave 8000.0 max 8000.0 min
Histogram: 8 0 0 0 0 0 0 0 0 0
FullNghs:  16000.0 ave 16000.0 max 16000.0 min
Histogram: 8 0 0 0 0 0 0 0 0 0

Total # of neighbors = 128000
Ave neighs/atom = 64.0
Neighbor list builds = 0
Dangerous builds = 0

Please see the log.cite file for references relevant to this simulation

Total wall time: 0:04:46
