LAMMPS (30 Jun 2020)
Lattice spacing in x,y,z = 2.8665 2.8665 2.8665
Created orthogonal box = (0.0 0.0 0.0) to (28.665 28.665 28.665)
  2 by 2 by 2 MPI processor grid
Created 2000 atoms
  create_atoms CPU = 0.001 seconds
Setting atom values ...
  2000 settings made for spin
Neighbor list info ...
  update every 10 steps, delay 20 steps, check yes
  max neighbors/atom: 2000, page size: 100000
  master list distance cutoff = 5.7733670002446
  ghost atom cutoff = 5.7733670002446
  binsize = 2.8866835001223, bins = 10.0 10.0 10.0
  2 neighbor lists, perpetual/occasional/extra = 2 0 0
  (1) pair eam/alloy, perpetual, half/full from (2)
      attributes: half, newton on
      pair build: halffull/newton
      stencil: none
      bin: none
  (2) pair spin/exchange, perpetual
      attributes: full, newton on
      pair build: full/bin/atomonly
      stencil: full/bin/3d
      bin: standard
Setting up Verlet run ...
  Unit style    : metal
  Current step  : 0
  Time step     : 0.0001
Per MPI rank memory allocation (min/avg/max) = 7.827 | 7.827 | 7.827 Mbytes
Step Time v_magnorm v_tmag Temp v_emag KinEng PotEng Press TotEng 
       0            0            1            0    650.02328   -222.33076    167.96018   -8782.3309    7616.8017   -8614.3707 
    5000          0.5   0.70327315    550.17828    650.02328   -116.60793    167.96018   -8676.6081    7616.8017   -8508.6479 
   10000            1   0.62610259    590.94251    650.02328   -99.891901    167.96018    -8659.892    7616.8017   -8491.9319 
   15000          1.5   0.57286544    629.43927    650.02328   -90.256665    167.96018   -8650.2568    7616.8017   -8482.2966 
   20000            2   0.55653832    630.06212    650.02328   -88.078571    167.96018   -8648.0787    7616.8017   -8480.1185 
   25000          2.5   0.55159392    607.78958    650.02328   -90.766696    167.96018   -8650.7668    7616.8017   -8482.8067 
   30000            3   0.53042125    629.03558    650.02328   -85.876761    167.96018   -8645.8769    7616.8017   -8477.9167 
   35000          3.5   0.52973036    627.60417    650.02328   -84.852373    167.96018   -8644.8525    7616.8017   -8476.8923 
   40000            4   0.51002481    639.21757    650.02328   -82.825282    167.96018   -8642.8254    7616.8017   -8474.8652 
   45000          4.5   0.50555985     628.6355    650.02328   -81.546764    167.96018   -8641.5469    7616.8017   -8473.5867 
   50000            5   0.50590445    665.07313    650.02328   -78.099388    167.96018   -8638.0995    7616.8017   -8470.1393 
   55000          5.5   0.50654452    649.00404    650.02328   -79.073586    167.96018   -8639.0737    7616.8017   -8471.1135 
   60000            6   0.48825508    654.58895    650.02328   -77.501098    167.96018   -8637.5012    7616.8017   -8469.5411 
   65000          6.5   0.48724872    649.15864    650.02328   -77.636269    167.96018   -8637.6364    7616.8017   -8469.6762 
   70000            7   0.46440163    657.09287    650.02328   -74.485437    167.96018   -8634.4856    7616.8017   -8466.5254 
   75000          7.5   0.44974166    634.93532    650.02328   -75.111296    167.96018   -8635.1114    7616.8017   -8467.1513 
   80000            8   0.45062088    644.30593    650.02328   -74.259182    167.96018   -8634.2593    7616.8017   -8466.2991 
   85000          8.5   0.44898119     651.8715    650.02328    -75.06452    167.96018   -8635.0647    7616.8017   -8467.1045 
   90000            9   0.46279124     633.5029    650.02328   -78.275491    167.96018   -8638.2756    7616.8017   -8470.3154 
   95000          9.5   0.44789606    649.88408    650.02328   -75.516949    167.96018   -8635.5171    7616.8017   -8467.5569 
  100000           10   0.44677187    647.97493    650.02328   -75.252403    167.96018   -8635.2525    7616.8017   -8467.2924 
Loop time of 279.702 on 8 procs for 100000 steps with 2000 atoms

Performance: 3.089 ns/day, 7.770 hours/ns, 357.523 timesteps/s
99.4% CPU use with 8 MPI tasks x no OpenMP threads

MPI task timing breakdown:
Section |  min time  |  avg time  |  max time  |%varavg| %total
---------------------------------------------------------------
Pair    | 55.837     | 57.119     | 57.774     |   7.8 | 20.42
Neigh   | 0          | 0          | 0          |   0.0 |  0.00
Comm    | 11.05      | 11.54      | 12.632     |  13.7 |  4.13
Output  | 3.5181     | 3.5539     | 3.5859     |   1.2 |  1.27
Modify  | 206.65     | 207.09     | 207.51     |   1.7 | 74.04
Other   |            | 0.3983     |            |       |  0.14

Nlocal:    250.0 ave 250.0 max 250.0 min
Histogram: 8 0 0 0 0 0 0 0 0 0
Nghost:    1479.0 ave 1479.0 max 1479.0 min
Histogram: 8 0 0 0 0 0 0 0 0 0
Neighs:    8000.0 ave 8000.0 max 8000.0 min
Histogram: 8 0 0 0 0 0 0 0 0 0
FullNghs:  16000.0 ave 16000.0 max 16000.0 min
Histogram: 8 0 0 0 0 0 0 0 0 0

Total # of neighbors = 128000
Ave neighs/atom = 64.0
Neighbor list builds = 0
Dangerous builds = 0

Please see the log.cite file for references relevant to this simulation

Total wall time: 0:04:39
