LAMMPS (30 Jun 2020)
Lattice spacing in x,y,z = 2.8665 2.8665 2.8665
Created orthogonal box = (0.0 0.0 0.0) to (28.665 28.665 28.665)
  2 by 2 by 2 MPI processor grid
Created 2000 atoms
  create_atoms CPU = 0.001 seconds
Setting atom values ...
  2000 settings made for spin
Neighbor list info ...
  update every 10 steps, delay 20 steps, check yes
  max neighbors/atom: 2000, page size: 100000
  master list distance cutoff = 5.7733670002446
  ghost atom cutoff = 5.7733670002446
  binsize = 2.8866835001223, bins = 10.0 10.0 10.0
  2 neighbor lists, perpetual/occasional/extra = 2 0 0
  (1) pair eam/alloy, perpetual, half/full from (2)
      attributes: half, newton on
      pair build: halffull/newton
      stencil: none
      bin: none
  (2) pair spin/exchange, perpetual
      attributes: full, newton on
      pair build: full/bin/atomonly
      stencil: full/bin/3d
      bin: standard
Setting up Verlet run ...
  Unit style    : metal
  Current step  : 0
  Time step     : 0.0001
Per MPI rank memory allocation (min/avg/max) = 7.827 | 7.827 | 7.827 Mbytes
Step Time v_magnorm v_tmag Temp v_emag KinEng PotEng Press TotEng 
       0            0            1            0    950.03402   -222.33076    245.48027   -8782.3309    11132.224   -8536.8506 
    5000          0.5   0.54276554    756.00796    950.03402   -72.745988    245.48027   -8632.7461    11132.224   -8387.2659 
   10000            1   0.36651471    857.84762    950.03402   -44.426758    245.48027   -8604.4269    11132.224   -8358.9466 
   15000          1.5   0.27954689    961.90874    950.03402   -32.084281    245.48027   -8592.0844    11132.224   -8346.6042 
   20000            2   0.20766895    923.62075    950.03402   -30.087826    245.48027    -8590.088    11132.224   -8344.6077 
   25000          2.5    0.1856494    902.86514    950.03402   -29.718544    245.48027   -8589.7187    11132.224   -8344.2384 
   30000            3   0.14297991    1040.8282    950.03402   -22.846614    245.48027   -8582.8468    11132.224   -8337.3665 
   35000          3.5  0.093112511    984.14361    950.03402   -23.407273    245.48027   -8583.4074    11132.224   -8337.9271 
   40000            4  0.087882569    907.43963    950.03402   -24.825267    245.48027   -8584.8254    11132.224   -8339.3451 
   45000          4.5  0.082068179    973.82098    950.03402   -24.886999    245.48027   -8584.8871    11132.224   -8339.4069 
   50000            5  0.050257807    1020.4096    950.03402   -22.777685    245.48027   -8582.7778    11132.224   -8337.2976 
   55000          5.5  0.039588192    944.79768    950.03402   -25.695729    245.48027   -8585.6959    11132.224   -8340.2156 
   60000            6  0.036083096     987.8321    950.03402   -22.558289    245.48027   -8582.5584    11132.224   -8337.0782 
   65000          6.5  0.058732237    951.24564    950.03402   -23.851831    245.48027    -8583.852    11132.224   -8338.3717 
   70000            7  0.048877609    957.45489    950.03402    -23.12616    245.48027   -8583.1263    11132.224    -8337.646 
   75000          7.5  0.063082854    928.47891    950.03402    -25.66508    245.48027   -8585.6652    11132.224   -8340.1849 
   80000            8  0.055623175    948.31564    950.03402   -25.269719    245.48027   -8585.2699    11132.224   -8339.7896 
   85000          8.5  0.059720598      916.295    950.03402   -27.482006    245.48027   -8587.4821    11132.224   -8342.0019 
   90000            9  0.058575583    1089.7713    950.03402   -20.767321    245.48027   -8580.7675    11132.224   -8335.2872 
   95000          9.5  0.033132825     1033.806    950.03402   -20.998281    245.48027   -8580.9984    11132.224   -8335.5182 
  100000           10  0.024068036    1017.9377    950.03402   -22.328291    245.48027   -8582.3284    11132.224   -8336.8482 
Loop time of 230.859 on 8 procs for 100000 steps with 2000 atoms

Performance: 3.743 ns/day, 6.413 hours/ns, 433.165 timesteps/s
99.7% CPU use with 8 MPI tasks x no OpenMP threads

MPI task timing breakdown:
Section |  min time  |  avg time  |  max time  |%varavg| %total
---------------------------------------------------------------
Pair    | 54.613     | 55.648     | 56.32      |   7.3 | 24.10
Neigh   | 0          | 0          | 0          |   0.0 |  0.00
Comm    | 6.3792     | 7.1739     | 8.4132     |  24.6 |  3.11
Output  | 5.334      | 5.5188     | 5.574      |   3.1 |  2.39
Modify  | 161.83     | 162.07     | 162.39     |   1.4 | 70.20
Other   |            | 0.4482     |            |       |  0.19

Nlocal:    250.0 ave 250.0 max 250.0 min
Histogram: 8 0 0 0 0 0 0 0 0 0
Nghost:    1479.0 ave 1479.0 max 1479.0 min
Histogram: 8 0 0 0 0 0 0 0 0 0
Neighs:    8000.0 ave 8000.0 max 8000.0 min
Histogram: 8 0 0 0 0 0 0 0 0 0
FullNghs:  16000.0 ave 16000.0 max 16000.0 min
Histogram: 8 0 0 0 0 0 0 0 0 0

Total # of neighbors = 128000
Ave neighs/atom = 64.0
Neighbor list builds = 0
Dangerous builds = 0

Please see the log.cite file for references relevant to this simulation

Total wall time: 0:03:50
