LAMMPS (30 Jun 2020)
Lattice spacing in x,y,z = 2.8665 2.8665 2.8665
Created orthogonal box = (0.0 0.0 0.0) to (28.665 28.665 28.665)
  2 by 2 by 2 MPI processor grid
Created 2000 atoms
  create_atoms CPU = 0.001 seconds
Setting atom values ...
  2000 settings made for spin
Neighbor list info ...
  update every 10 steps, delay 20 steps, check yes
  max neighbors/atom: 2000, page size: 100000
  master list distance cutoff = 5.7733670002446
  ghost atom cutoff = 5.7733670002446
  binsize = 2.8866835001223, bins = 10.0 10.0 10.0
  2 neighbor lists, perpetual/occasional/extra = 2 0 0
  (1) pair eam/alloy, perpetual, half/full from (2)
      attributes: half, newton on
      pair build: halffull/newton
      stencil: none
      bin: none
  (2) pair spin/exchange, perpetual
      attributes: full, newton on
      pair build: full/bin/atomonly
      stencil: full/bin/3d
      bin: standard
Setting up Verlet run ...
  Unit style    : metal
  Current step  : 0
  Time step     : 0.0001
Per MPI rank memory allocation (min/avg/max) = 7.827 | 7.827 | 7.827 Mbytes
Step Time v_magnorm v_tmag Temp v_emag KinEng PotEng Press TotEng 
       0            0            1            0    900.03223   -222.33076    232.56026   -8782.3309     10546.32   -8549.7706 
    5000          0.5    0.5872082    694.69856    900.03223   -83.602695    232.56026   -8643.6028     10546.32   -8411.0426 
   10000            1   0.44343587    716.41186    900.03223   -61.039639    232.56026   -8621.0398     10546.32   -8388.4795 
   15000          1.5   0.35092252    833.24935    900.03223   -45.297481    232.56026   -8605.2976     10546.32   -8372.7374 
   20000            2   0.26169969    873.38925    900.03223   -35.465907    232.56026    -8595.466     10546.32   -8362.9058 
   25000          2.5    0.2092725    844.07125    900.03223   -32.661077    232.56026   -8592.6612     10546.32    -8360.101 
   30000            3   0.16880602    900.68809    900.03223   -28.730257    232.56026   -8588.7304     10546.32   -8356.1701 
   35000          3.5    0.1395672    866.59718    900.03223   -30.008197    232.56026   -8590.0083     10546.32   -8357.4481 
   40000            4   0.11216079    925.24177    900.03223   -26.892135    232.56026   -8586.8923     10546.32    -8354.332 
   45000          4.5   0.10882205     894.5861    900.03223   -26.293461    232.56026   -8586.2936     10546.32   -8353.7333 
   50000            5  0.099782989    849.39857    900.03223   -29.929497    232.56026   -8589.9296     10546.32   -8357.3694 
   55000          5.5  0.033579764    915.77537    900.03223   -27.323403    232.56026   -8587.3235     10546.32   -8354.7633 
   60000            6  0.039154258    936.42907    900.03223   -25.843514    232.56026   -8585.8437     10546.32   -8353.2834 
   65000          6.5   0.03127412    895.96108    900.03223   -26.654387    232.56026   -8586.6545     10546.32   -8354.0943 
   70000            7  0.027184945    882.44149    900.03223   -26.313212    232.56026   -8586.3134     10546.32   -8353.7531 
   75000          7.5  0.056641247    822.13836    900.03223   -30.901395    232.56026   -8590.9015     10546.32   -8358.3413 
   80000            8  0.050786366    868.77196    900.03223    -28.23087    232.56026    -8588.231     10546.32   -8355.6708 
   85000          8.5  0.058981687     863.8152    900.03223   -28.723174    232.56026   -8588.7233     10546.32   -8356.1631 
   90000            9  0.072925028    895.09152    900.03223   -28.272988    232.56026   -8588.2731     10546.32   -8355.7129 
   95000          9.5  0.073458005     884.3175    900.03223   -27.683297    232.56026   -8587.6834     10546.32   -8355.1232 
  100000           10   0.06713966    860.18438    900.03223   -27.756487    232.56026   -8587.7566     10546.32   -8355.1964 
Loop time of 231.555 on 8 procs for 100000 steps with 2000 atoms

Performance: 3.731 ns/day, 6.432 hours/ns, 431.862 timesteps/s
99.7% CPU use with 8 MPI tasks x no OpenMP threads

MPI task timing breakdown:
Section |  min time  |  avg time  |  max time  |%varavg| %total
---------------------------------------------------------------
Pair    | 54.901     | 55.71      | 56.169     |   5.7 | 24.06
Neigh   | 0          | 0          | 0          |   0.0 |  0.00
Comm    | 6.4882     | 7.1281     | 8.1507     |  19.7 |  3.08
Output  | 5.2136     | 5.2425     | 5.2739     |   0.9 |  2.26
Modify  | 162.78     | 163.02     | 163.23     |   1.2 | 70.40
Other   |            | 0.4588     |            |       |  0.20

Nlocal:    250.0 ave 250.0 max 250.0 min
Histogram: 8 0 0 0 0 0 0 0 0 0
Nghost:    1479.0 ave 1479.0 max 1479.0 min
Histogram: 8 0 0 0 0 0 0 0 0 0
Neighs:    8000.0 ave 8000.0 max 8000.0 min
Histogram: 8 0 0 0 0 0 0 0 0 0
FullNghs:  16000.0 ave 16000.0 max 16000.0 min
Histogram: 8 0 0 0 0 0 0 0 0 0

Total # of neighbors = 128000
Ave neighs/atom = 64.0
Neighbor list builds = 0
Dangerous builds = 0

Please see the log.cite file for references relevant to this simulation

Total wall time: 0:03:51
