LAMMPS (30 Jun 2020)
Lattice spacing in x,y,z = 2.8665 2.8665 2.8665
Created orthogonal box = (0.0 0.0 0.0) to (28.665 28.665 28.665)
  2 by 2 by 2 MPI processor grid
Created 2000 atoms
  create_atoms CPU = 0.000 seconds
Setting atom values ...
  2000 settings made for spin
Neighbor list info ...
  update every 10 steps, delay 20 steps, check yes
  max neighbors/atom: 2000, page size: 100000
  master list distance cutoff = 5.7733670002446
  ghost atom cutoff = 5.7733670002446
  binsize = 2.8866835001223, bins = 10.0 10.0 10.0
  2 neighbor lists, perpetual/occasional/extra = 2 0 0
  (1) pair eam/alloy, perpetual, half/full from (2)
      attributes: half, newton on
      pair build: halffull/newton
      stencil: none
      bin: none
  (2) pair spin/exchange, perpetual
      attributes: full, newton on
      pair build: full/bin/atomonly
      stencil: full/bin/3d
      bin: standard
Setting up Verlet run ...
  Unit style    : metal
  Current step  : 0
  Time step     : 0.0001
Per MPI rank memory allocation (min/avg/max) = 7.827 | 7.827 | 7.827 Mbytes
Step Time v_magnorm v_tmag Temp v_emag KinEng PotEng Press TotEng 
       0            0            1            0    1000.0358   -222.33076    258.40028   -8782.3309    11718.128   -8523.9306 
    5000          0.5   0.50895717    785.87554    1000.0358   -66.253004    258.40028   -8626.2531    11718.128   -8367.8529 
   10000            1   0.34580123    850.61328    1000.0358   -43.047097    258.40028   -8603.0472    11718.128    -8344.647 
   15000          1.5   0.27489556    917.86825    1000.0358   -33.956793    258.40028   -8593.9569    11718.128   -8335.5566 
   20000            2    0.2251292    938.86276    1000.0358   -29.160848    258.40028    -8589.161    11718.128   -8330.7607 
   25000          2.5   0.20422715    934.47077    1000.0358   -29.124474    258.40028   -8589.1246    11718.128   -8330.7243 
   30000            3   0.16462246    977.14136    1000.0358   -26.066109    258.40028   -8586.0662    11718.128    -8327.666 
   35000          3.5   0.15565809    951.89019    1000.0358   -27.076174    258.40028   -8587.0763    11718.128    -8328.676 
   40000            4   0.12766769    943.45348    1000.0358   -26.049285    258.40028   -8586.0494    11718.128   -8327.6491 
   45000          4.5  0.082104473    1022.0504    1000.0358   -20.745103    258.40028   -8580.7452    11718.128    -8322.345 
   50000            5   0.04272748    1021.2028    1000.0358   -21.924449    258.40028   -8581.9246    11718.128   -8323.5243 
   55000          5.5  0.031976731    1128.9516    1000.0358   -18.783107    258.40028   -8578.7832    11718.128    -8320.383 
   60000            6  0.029669185    1086.0378    1000.0358   -19.271877    258.40028    -8579.272    11718.128   -8320.8717 
   65000          6.5  0.060947346    972.46008    1000.0358   -23.189304    258.40028   -8583.1894    11718.128   -8324.7892 
   70000            7  0.057664442    1003.2097    1000.0358   -23.803226    258.40028   -8583.8034    11718.128   -8325.4031 
   75000          7.5  0.058936411    982.66412    1000.0358   -22.625541    258.40028   -8582.6257    11718.128   -8324.2254 
   80000            8  0.054638062    967.05588    1000.0358   -24.390635    258.40028   -8584.3908    11718.128   -8325.9905 
   85000          8.5  0.056625878    917.55281    1000.0358    -23.84868    258.40028   -8583.8488    11718.128   -8325.4485 
   90000            9  0.056516972    1039.0086    1000.0358   -20.917418    258.40028   -8580.9176    11718.128   -8322.5173 
   95000          9.5  0.019708027    1051.5713    1000.0358   -20.058669    258.40028   -8580.0588    11718.128   -8321.6585 
  100000           10  0.018667821    1019.0116    1000.0358   -22.202065    258.40028   -8582.2022    11718.128   -8323.8019 
Loop time of 257.49 on 8 procs for 100000 steps with 2000 atoms

Performance: 3.355 ns/day, 7.153 hours/ns, 388.364 timesteps/s
99.6% CPU use with 8 MPI tasks x no OpenMP threads

MPI task timing breakdown:
Section |  min time  |  avg time  |  max time  |%varavg| %total
---------------------------------------------------------------
Pair    | 55.368     | 56.219     | 56.698     |   6.1 | 21.83
Neigh   | 0          | 0          | 0          |   0.0 |  0.00
Comm    | 8.1677     | 8.92       | 9.9566     |  16.9 |  3.46
Output  | 5.2788     | 5.3066     | 5.3375     |   0.8 |  2.06
Modify  | 186.38     | 186.65     | 187.14     |   1.9 | 72.49
Other   |            | 0.3946     |            |       |  0.15

Nlocal:    250.0 ave 250.0 max 250.0 min
Histogram: 8 0 0 0 0 0 0 0 0 0
Nghost:    1479.0 ave 1479.0 max 1479.0 min
Histogram: 8 0 0 0 0 0 0 0 0 0
Neighs:    8000.0 ave 8000.0 max 8000.0 min
Histogram: 8 0 0 0 0 0 0 0 0 0
FullNghs:  16000.0 ave 16000.0 max 16000.0 min
Histogram: 8 0 0 0 0 0 0 0 0 0

Total # of neighbors = 128000
Ave neighs/atom = 64.0
Neighbor list builds = 0
Dangerous builds = 0

Please see the log.cite file for references relevant to this simulation

Total wall time: 0:04:17
