LAMMPS (30 Jun 2020)
Lattice spacing in x,y,z = 2.8665 2.8665 2.8665
Created orthogonal box = (0.0 0.0 0.0) to (28.665 28.665 28.665)
  2 by 2 by 2 MPI processor grid
Created 2000 atoms
  create_atoms CPU = 0.000 seconds
Setting atom values ...
  2000 settings made for spin
Neighbor list info ...
  update every 10 steps, delay 20 steps, check yes
  max neighbors/atom: 2000, page size: 100000
  master list distance cutoff = 5.7733670002446
  ghost atom cutoff = 5.7733670002446
  binsize = 2.8866835001223, bins = 10.0 10.0 10.0
  2 neighbor lists, perpetual/occasional/extra = 2 0 0
  (1) pair eam/alloy, perpetual, half/full from (2)
      attributes: half, newton on
      pair build: halffull/newton
      stencil: none
      bin: none
  (2) pair spin/exchange, perpetual
      attributes: full, newton on
      pair build: full/bin/atomonly
      stencil: full/bin/3d
      bin: standard
Setting up Verlet run ...
  Unit style    : metal
  Current step  : 0
  Time step     : 0.0001
Per MPI rank memory allocation (min/avg/max) = 7.827 | 7.827 | 7.827 Mbytes
Step Time v_magnorm v_tmag Temp v_emag KinEng PotEng Press TotEng 
       0            0            1            0            0   -222.33076            0   -8782.3309   -36076.783   -8782.3309 
    5000          0.5    0.9582567    97.191451  0.044818615   -205.82403  0.011580728   -8765.8122   -33386.157   -8765.8007 
   10000            1   0.95421203    101.42205   0.12316277   -204.77857  0.031824156    -8764.745   -33202.067   -8764.7132 
   15000          1.5   0.95254464    100.80175   0.21719824   -204.74243  0.056122076    -8764.685   -33186.814   -8764.6289 
   20000            2   0.95225053      99.0459   0.30233112   -205.01737   0.07811965   -8764.9356   -33222.222   -8764.8575 
   25000          2.5   0.94825418    98.569037   0.39191853   -204.69289   0.10126823   -8764.5889   -33158.956   -8764.4877 
   30000            3   0.95002364    98.705425   0.47256755   -205.03972   0.12210722   -8764.9156   -33210.292   -8764.7935 
   35000          3.5   0.95186223    99.620685   0.56155916   -205.02867   0.14510185    -8764.886   -33207.838   -8764.7409 
   40000            4   0.95128429    97.038165   0.64474067   -205.25876   0.16659521   -8765.0951    -33241.58   -8764.9285 
   45000          4.5   0.95189986    97.645655   0.71542795    -205.1689   0.18486017     -8764.98   -33210.073   -8764.7952 
   50000            5   0.95308313    97.867503   0.80926657   -205.24876   0.20910722   -8765.0392   -33219.827   -8764.8301 
   55000          5.5   0.95000807      102.217   0.89829008   -204.37417    0.2321101   -8764.1453   -33070.139   -8763.9132 
   60000            6   0.95001326    101.40234   0.95259955   -204.53161   0.24614318   -8764.2764   -33085.474   -8764.0303 
   65000          6.5   0.95029363    100.38607    1.0951979   -204.83806   0.28298931   -8764.5762   -33133.652   -8764.2932 
   70000            7   0.94982386    97.007607    1.1317693   -205.30068   0.29243903   -8765.0076   -33195.563   -8764.7152 
   75000          7.5   0.95005338    96.708035    1.1799152    -205.2475    0.3048795   -8764.9248   -33180.033   -8764.6199 
   80000            8    0.9489048    98.713743    1.2889877   -204.94792   0.33306287   -8764.6081   -33127.067    -8764.275 
   85000          8.5   0.94568863     101.8719    1.3351628   -204.24264    0.3449941   -8763.8799   -32997.977   -8763.5349 
   90000            9   0.94866222    98.979517    1.4424577   -204.83312   0.37271814   -8764.4534   -33092.944   -8764.0807 
   95000          9.5   0.95008305    101.88669    1.5298686   -204.59055   0.39530432   -8764.1929   -33044.562   -8763.7976 
  100000           10   0.94967555    103.23668    1.6494381   -204.24267       0.4262   -8763.8295   -32986.816   -8763.4033 
Loop time of 271.946 on 8 procs for 100000 steps with 2000 atoms

Performance: 3.177 ns/day, 7.554 hours/ns, 367.720 timesteps/s
100.0% CPU use with 8 MPI tasks x no OpenMP threads

MPI task timing breakdown:
Section |  min time  |  avg time  |  max time  |%varavg| %total
---------------------------------------------------------------
Pair    | 66.189     | 66.813     | 67.397     |   4.9 | 24.57
Neigh   | 0          | 0          | 0          |   0.0 |  0.00
Comm    | 8.698      | 9.0863     | 9.786      |  12.4 |  3.34
Output  | 0.45754    | 0.48896    | 0.52095    |   3.0 |  0.18
Modify  | 194.46     | 195.18     | 195.73     |   2.8 | 71.77
Other   |            | 0.3744     |            |       |  0.14

Nlocal:    250.0 ave 250.0 max 250.0 min
Histogram: 8 0 0 0 0 0 0 0 0 0
Nghost:    1479.0 ave 1479.0 max 1479.0 min
Histogram: 8 0 0 0 0 0 0 0 0 0
Neighs:    8000.0 ave 8000.0 max 8000.0 min
Histogram: 8 0 0 0 0 0 0 0 0 0
FullNghs:  16000.0 ave 16000.0 max 16000.0 min
Histogram: 8 0 0 0 0 0 0 0 0 0

Total # of neighbors = 128000
Ave neighs/atom = 64.0
Neighbor list builds = 0
Dangerous builds = 0
Setting up Verlet run ...
  Unit style    : metal
  Current step  : 100000
  Time step     : 0.0001
Per MPI rank memory allocation (min/avg/max) = 7.827 | 7.827 | 7.827 Mbytes
Step Time v_magnorm v_tmag Temp v_emag KinEng PotEng Press TotEng 
  100000           10   0.94967555    103.23668          100   -204.24267    25.839103   -8763.8295   -31834.378   -8737.9904 
  105000         10.5   0.94966387    102.49105    54.180574   -204.40113    13.999774   -8752.1855   -29288.743   -8738.1858 
  110000           11   0.94991169    101.57719    53.006149   -204.52369    13.696313   -8751.9899   -29359.701   -8738.2936 
  115000         11.5   0.95124303    96.383541    46.982213   -205.20719    12.139782   -8751.0967   -29047.647   -8738.9569 
  120000           12   0.95039779    102.63711    50.462416    -204.3022    13.039036   -8751.0569   -29155.623   -8738.0179 
  125000         12.5   0.95040746    99.957249    51.182059   -204.65926    13.224985   -8751.5592   -29210.425   -8738.3342 
  130000           13   0.94962733    97.940641    54.401831   -204.88065    14.056945   -8752.5731   -29407.137   -8738.5162 
  135000         13.5   0.94934165    104.08893    49.740704   -203.92239    12.852552   -8750.4126   -29042.051   -8737.5601 
  140000           14   0.94897964    100.92669    52.347549   -204.31934    13.526137   -8751.4549   -29067.359   -8737.9287 
  145000         14.5   0.94954641    99.807113    49.149292   -204.58687    12.699736   -8750.8834   -29059.497   -8738.1837 
  150000           15   0.94997067    98.266999    51.357807   -204.83529    13.270397    -8751.661   -29236.673   -8738.3906 
  155000         15.5    0.9489056    100.68727    54.332933   -204.46942    14.039143   -8752.0819   -29242.498   -8738.0427 
  160000           16   0.95059141    98.108824    51.082766   -204.96851    13.199328   -8751.7105   -29215.999   -8738.5112 
  165000         16.5   0.95033765     98.21548    51.909208   -204.98927    13.412874   -8751.9008   -29309.051   -8738.4879 
  170000           17   0.94687151    102.25268    49.041773   -204.12063    12.671954   -8750.2723   -28878.019   -8737.6003 
  175000         17.5   0.94720942    101.69912    50.174077   -204.19723    12.964531     -8750.63   -29156.395   -8737.6655 
  180000           18   0.94716108    100.67013     53.93016   -204.34906     13.93507   -8751.7025   -29256.581   -8737.7674 
  185000         18.5   0.94762556    97.705532    52.248476   -204.76167    13.500538   -8751.6672   -29239.885   -8738.1666 
  190000           19   0.94733699    101.35891    53.301413   -204.21165    13.772607   -8751.3857   -29176.514   -8737.6131 
  195000         19.5   0.94681122    100.48812    53.859767   -204.22866    13.916881   -8751.5513   -29296.299   -8737.6344 
  200000           20   0.94771252    102.15523     50.86202   -204.11379     13.14229   -8750.6577   -29082.872   -8737.5154 
Loop time of 285.391 on 8 procs for 100000 steps with 2000 atoms

Performance: 3.027 ns/day, 7.928 hours/ns, 350.397 timesteps/s
100.0% CPU use with 8 MPI tasks x no OpenMP threads

MPI task timing breakdown:
Section |  min time  |  avg time  |  max time  |%varavg| %total
---------------------------------------------------------------
Pair    | 71.375     | 71.59      | 71.986     |   2.2 | 25.08
Neigh   | 0.48461    | 0.48921    | 0.49143    |   0.3 |  0.17
Comm    | 9.8342     | 10.102     | 10.776     |   9.0 |  3.54
Output  | 0.44736    | 0.47782    | 0.50849    |   2.9 |  0.17
Modify  | 201.71     | 202.38     | 202.9      |   2.5 | 70.91
Other   |            | 0.356      |            |       |  0.12

Nlocal:    250.0 ave 251.0 max 249.0 min
Histogram: 3 0 0 0 0 2 0 0 0 3
Nghost:    1429.25 ave 1434.0 max 1422.0 min
Histogram: 1 0 0 1 0 2 1 1 0 2
Neighs:    7867.25 ave 7908.0 max 7800.0 min
Histogram: 1 1 0 0 0 0 1 3 0 2
FullNghs:  15734.5 ave 15810.0 max 15637.0 min
Histogram: 1 0 2 0 0 1 1 0 1 2

Total # of neighbors = 125876
Ave neighs/atom = 62.938
Neighbor list builds = 723
Dangerous builds = 0

Please see the log.cite file for references relevant to this simulation

Total wall time: 0:09:17
