LAMMPS (30 Jun 2020)
Lattice spacing in x,y,z = 2.8665 2.8665 2.8665
Created orthogonal box = (0.0 0.0 0.0) to (28.665 28.665 28.665)
  2 by 2 by 2 MPI processor grid
Created 2000 atoms
  create_atoms CPU = 0.001 seconds
Setting atom values ...
  2000 settings made for spin
Neighbor list info ...
  update every 10 steps, delay 20 steps, check yes
  max neighbors/atom: 2000, page size: 100000
  master list distance cutoff = 5.7733670002446
  ghost atom cutoff = 5.7733670002446
  binsize = 2.8866835001223, bins = 10.0 10.0 10.0
  2 neighbor lists, perpetual/occasional/extra = 2 0 0
  (1) pair eam/alloy, perpetual, half/full from (2)
      attributes: half, newton on
      pair build: halffull/newton
      stencil: none
      bin: none
  (2) pair spin/exchange, perpetual
      attributes: full, newton on
      pair build: full/bin/atomonly
      stencil: full/bin/3d
      bin: standard
Setting up Verlet run ...
  Unit style    : metal
  Current step  : 0
  Time step     : 0.0001
Per MPI rank memory allocation (min/avg/max) = 7.827 | 7.827 | 7.827 Mbytes
Step Time v_magnorm v_tmag Temp v_emag KinEng PotEng Press TotEng 
       0            0            1            0            0   -222.33076            0   -8782.3309   -36076.783   -8782.3309 
    5000          0.5   0.93609374    145.31131   0.10456298   -197.34958  0.027018135   -8757.3228    -31998.01   -8757.2958 
   10000            1   0.93113683    147.55734   0.29437569    -196.4143  0.076064037   -8756.3368   -31821.946   -8756.2607 
   15000          1.5   0.93043324    145.48712   0.48064844   -196.78499   0.12419525   -8756.6553   -31872.138   -8756.5311 
   20000            2   0.92798052    147.44918   0.64620339   -196.30967   0.16697316   -8756.1251   -31760.085   -8755.9581 
   25000          2.5   0.92335429    151.69553   0.88330901   -195.25588   0.22823913   -8755.0361   -31580.277   -8754.8078 
   30000            3   0.92486122    148.70025    1.0398572    -196.0084   0.26868979   -8755.7316   -31684.414   -8755.4629 
   35000          3.5    0.9245128    151.44345    1.2577352   -195.45768    0.3249875   -8755.1236    -31568.49   -8754.7987 
   40000            4   0.92257517    151.75221     1.453511   -195.51727    0.3755742    -8755.124   -31570.223   -8754.7484 
   45000          4.5   0.92326096    150.39328    1.6886459   -195.72405   0.43633095   -8755.2922   -31584.083   -8754.8558 
   50000            5   0.92021102    156.79816    1.8647339   -194.42905   0.48183052    -8753.933   -31357.166   -8753.4512 
   55000          5.5   0.92072405    159.64636     2.130603   -194.09998    0.5505287   -8753.5548   -31287.648   -8753.0042 
   60000            6   0.92501575    149.18412    2.3700931   -195.79947   0.61241081   -8755.2086     -31544.3   -8754.5962 
   65000          6.5   0.92409833    151.38153    2.5012822   -195.45708   0.64630888   -8754.8169    -31480.18   -8754.1706 
   70000            7    0.9255387    150.08794    2.8258903   -195.77379   0.73018471    -8755.123   -31517.297   -8754.3928 
   75000          7.5   0.92591426    148.88402    2.8445102   -195.92461   0.73499593   -8755.1707   -31504.459   -8754.4357 
   80000            8   0.92690879     146.7566    3.1667723    -196.3599   0.81826555   -8755.6029   -31573.023   -8754.7846 
   85000          8.5    0.9229994    155.07145    3.4102065   -194.89177   0.88116676   -8754.0984   -31325.636   -8753.2172 
   90000            9   0.92536832    147.74535    3.4295353   -195.88619   0.88616115   -8755.0038   -31456.794   -8754.1176 
   95000          9.5   0.92584135    152.34539    3.6215687   -195.44097   0.93578088   -8754.5014   -31365.178   -8753.5657 
  100000           10   0.92573513    150.58679    3.9551596    -195.6097    1.0219778    -8754.632   -31377.199     -8753.61 
Loop time of 283.22 on 8 procs for 100000 steps with 2000 atoms

Performance: 3.051 ns/day, 7.867 hours/ns, 353.082 timesteps/s
100.0% CPU use with 8 MPI tasks x no OpenMP threads

MPI task timing breakdown:
Section |  min time  |  avg time  |  max time  |%varavg| %total
---------------------------------------------------------------
Pair    | 66.256     | 67.014     | 67.443     |   4.3 | 23.66
Neigh   | 0          | 0          | 0          |   0.0 |  0.00
Comm    | 9.2495     | 9.7887     | 10.541     |  13.1 |  3.46
Output  | 0.44179    | 0.47533    | 0.50924    |   3.2 |  0.17
Modify  | 204.96     | 205.58     | 205.94     |   2.6 | 72.59
Other   |            | 0.3666     |            |       |  0.13

Nlocal:    250.0 ave 250.0 max 250.0 min
Histogram: 8 0 0 0 0 0 0 0 0 0
Nghost:    1479.0 ave 1479.0 max 1479.0 min
Histogram: 8 0 0 0 0 0 0 0 0 0
Neighs:    8000.0 ave 8000.0 max 8000.0 min
Histogram: 8 0 0 0 0 0 0 0 0 0
FullNghs:  16000.0 ave 16000.0 max 16000.0 min
Histogram: 8 0 0 0 0 0 0 0 0 0

Total # of neighbors = 128000
Ave neighs/atom = 64.0
Neighbor list builds = 0
Dangerous builds = 0
Setting up Verlet run ...
  Unit style    : metal
  Current step  : 100000
  Time step     : 0.0001
Per MPI rank memory allocation (min/avg/max) = 7.827 | 7.827 | 7.827 Mbytes
Step Time v_magnorm v_tmag Temp v_emag KinEng PotEng Press TotEng 
  100000           10   0.92573513    150.58679          150    -195.6097    38.758654    -8754.632   -29665.896   -8715.8734 
  105000         10.5   0.92399426     152.3619    81.704307   -194.96983     21.11166   -8736.3449   -25665.251   -8715.2332 
  110000           11   0.92159173    155.72164    79.677259    -194.1741    20.587889   -8735.0242   -25597.251   -8714.4363 
  115000         11.5   0.92386183    150.01357    72.656609   -195.43216    18.773816   -8734.4022   -25350.352   -8715.6284 
  120000           12   0.92239138    149.55449    76.656361   -195.27576    19.807316   -8735.1992   -25607.047   -8715.3919 
  125000         12.5   0.92455638    152.99997    77.309591   -195.03767    19.976105    -8735.106   -25609.118   -8715.1299 
  130000           13     0.923766    152.15147    77.656815   -195.07902    20.065824    -8735.219   -25435.208   -8715.1532 
  135000         13.5   0.91988244     157.0684    79.149518   -194.05678    20.451526   -8734.5203    -25554.86   -8714.0687 
  140000           14   0.92376414    153.20102     83.35818   -194.94513    21.539006    -8736.476   -25734.243    -8714.937 
  145000         14.5   0.92594274    145.60234    81.593243   -196.20867    21.082962   -8737.2533    -26103.03   -8716.1703 
  150000           15   0.92388963    147.17046    78.814373   -195.79416    20.364927   -8736.0919   -25839.886    -8715.727 
  155000         15.5   0.92439474    148.66904    79.439427    -195.6354    20.526435   -8736.0444   -25590.643   -8715.5179 
  160000           16    0.9233204    153.67503    79.386522   -195.06904    20.512765   -8735.4038   -25532.514   -8714.8911 
  165000         16.5   0.92465845    149.24741    75.339767   -195.64757     19.46712   -8734.8879   -25430.442   -8715.4208 
  170000           17   0.92319217    149.88958    81.100031   -195.56264    20.955521   -8736.2216     -25644.7   -8715.2661 
  175000         17.5   0.92402038    144.27315    77.633388   -196.27231    20.059771   -8736.0272   -25803.736   -8715.9674 
  180000           18   0.92268974     153.6999    78.449004   -195.05538    20.270519   -8734.9907   -25627.526   -8714.7202 
  185000         18.5   0.92241119    153.28832     81.48022   -194.76912    21.053758   -8735.4738   -25738.105     -8714.42 
  190000           19   0.92392033    147.83174    79.697239   -195.81084    20.593052   -8736.0252   -25682.838   -8715.4321 
  195000         19.5   0.92608724     151.6789    80.871821   -195.43061    20.896553   -8735.8719   -25741.197   -8714.9753 
  200000           20   0.92489446    150.60704     78.50736   -195.40296    20.285598   -8735.1891   -25589.091   -8714.9035 
Loop time of 289.304 on 8 procs for 100000 steps with 2000 atoms

Performance: 2.986 ns/day, 8.036 hours/ns, 345.658 timesteps/s
100.0% CPU use with 8 MPI tasks x no OpenMP threads

MPI task timing breakdown:
Section |  min time  |  avg time  |  max time  |%varavg| %total
---------------------------------------------------------------
Pair    | 71.355     | 71.736     | 72.087     |   2.9 | 24.80
Neigh   | 0.59391    | 0.59986    | 0.60634    |   0.5 |  0.21
Comm    | 10.275     | 10.406     | 10.731     |   4.3 |  3.60
Output  | 0.44092    | 0.47018    | 0.49914    |   2.8 |  0.16
Modify  | 205.27     | 205.73     | 206.06     |   1.6 | 71.11
Other   |            | 0.359      |            |       |  0.12

Nlocal:    250.0 ave 257.0 max 234.0 min
Histogram: 1 0 0 0 1 0 2 0 2 2
Nghost:    1395.25 ave 1406.0 max 1384.0 min
Histogram: 2 0 0 1 1 1 0 0 2 1
Neighs:    7831.25 ave 8050.0 max 7346.0 min
Histogram: 1 0 0 0 1 0 1 1 1 3
FullNghs:  15662.5 ave 16110.0 max 14650.0 min
Histogram: 1 0 0 0 1 0 1 1 2 2

Total # of neighbors = 125300
Ave neighs/atom = 62.65
Neighbor list builds = 889
Dangerous builds = 0

Please see the log.cite file for references relevant to this simulation

Total wall time: 0:09:32
