LAMMPS (30 Jun 2020)
Lattice spacing in x,y,z = 2.8665 2.8665 2.8665
Created orthogonal box = (0.0 0.0 0.0) to (28.665 28.665 28.665)
  2 by 2 by 2 MPI processor grid
Created 2000 atoms
  create_atoms CPU = 0.001 seconds
Setting atom values ...
  2000 settings made for spin
Neighbor list info ...
  update every 10 steps, delay 20 steps, check yes
  max neighbors/atom: 2000, page size: 100000
  master list distance cutoff = 5.7733670002446
  ghost atom cutoff = 5.7733670002446
  binsize = 2.8866835001223, bins = 10.0 10.0 10.0
  2 neighbor lists, perpetual/occasional/extra = 2 0 0
  (1) pair eam/alloy, perpetual, half/full from (2)
      attributes: half, newton on
      pair build: halffull/newton
      stencil: none
      bin: none
  (2) pair spin/exchange, perpetual
      attributes: full, newton on
      pair build: full/bin/atomonly
      stencil: full/bin/3d
      bin: standard
Setting up Verlet run ...
  Unit style    : metal
  Current step  : 0
  Time step     : 0.0001
Per MPI rank memory allocation (min/avg/max) = 7.827 | 7.827 | 7.827 Mbytes
Step Time v_magnorm v_tmag Temp v_emag KinEng PotEng Press TotEng 
       0            0            1            0            0   -222.33076            0   -8782.3309   -36076.783   -8782.3309 
    5000          0.5    0.9125745    190.33528   0.19228955   -188.85532  0.049685895   -8748.8073   -30604.813   -8748.7576 
   10000            1   0.90405958    198.12677   0.52721038   -186.99142   0.13622643    -8746.849   -30261.569   -8746.7128 
   15000          1.5   0.90297319    196.24071   0.92816177   -187.27572   0.23982867    -8747.035   -30272.586   -8746.7951 
   20000            2   0.90213329    195.15741    1.2929996   -187.38398   0.33409949   -8747.0395   -30252.101   -8746.7054 
   25000          2.5   0.89473648    202.76186    1.7411919   -185.82439   0.44990838    -8745.406   -29971.587   -8744.9561 
   30000            3   0.89929271    200.61991    2.0707258   -186.47429   0.53505698   -8745.9509   -30056.996   -8745.4158 
   35000          3.5   0.89665971    203.08126    2.4160765   -185.81803   0.62429249   -8745.1961   -29899.187   -8744.5718 
   40000            4   0.89657989    199.86911    2.7082591   -186.35059   0.69978985   -8745.6274   -29960.116   -8744.9276 
   45000          4.5   0.89619833    200.70635    2.9786541   -186.08056    0.7696575    -8745.255   -29870.417   -8744.4854 
   50000            5   0.89182099    202.87524    3.5016416   -185.34708   0.90479279   -8744.4359   -29722.957   -8743.5311 
   55000          5.5   0.89493373    201.65139    3.8494542    -185.8666   0.99466444    -8744.862   -29780.715   -8743.8674 
   60000            6   0.89647859    198.44123    4.1809096    -186.5112    1.0803095   -8745.3759   -29848.212   -8744.2956 
   65000          6.5   0.89381738    202.22945    4.5959759   -185.68433    1.1875589   -8744.4561   -29676.661   -8743.2685 
   70000            7   0.89088312    204.32341    5.0461823   -185.25941    1.3038882   -8743.9681   -29590.174   -8742.6643 
   75000          7.5   0.89180806    203.71375    5.4032121   -185.30031    1.3961415   -8743.9282   -29565.633   -8742.5321 
   80000            8   0.89177117    203.97897    5.8112791   -185.40975    1.5015824   -8743.9271   -29530.296   -8742.4255 
   85000          8.5   0.89055149    201.60637    6.1585402   -185.42134    1.5913116   -8743.8531   -29515.041   -8742.2618 
   90000            9   0.89398639    198.29801     6.435552   -186.46463    1.6628889    -8744.805   -29649.585   -8743.1421 
   95000          9.5   0.89349045    203.94449    6.7293375   -185.48726    1.7388005   -8743.7099   -29468.991   -8741.9711 
  100000           10   0.88959331    205.46301    7.1540738    -185.1423    1.8485485   -8743.2756    -29373.76    -8741.427 
Loop time of 304.048 on 8 procs for 100000 steps with 2000 atoms

Performance: 2.842 ns/day, 8.446 hours/ns, 328.896 timesteps/s
100.0% CPU use with 8 MPI tasks x no OpenMP threads

MPI task timing breakdown:
Section |  min time  |  avg time  |  max time  |%varavg| %total
---------------------------------------------------------------
Pair    | 65.992     | 67.724     | 68.67      |   9.8 | 22.27
Neigh   | 0          | 0          | 0          |   0.0 |  0.00
Comm    | 10.263     | 10.94      | 12.776     |  26.0 |  3.60
Output  | 0.44045    | 0.47169    | 0.50304    |   2.9 |  0.16
Modify  | 223.96     | 224.52     | 225.27     |   2.8 | 73.85
Other   |            | 0.387      |            |       |  0.13

Nlocal:    250.0 ave 250.0 max 250.0 min
Histogram: 8 0 0 0 0 0 0 0 0 0
Nghost:    1479.0 ave 1479.0 max 1479.0 min
Histogram: 8 0 0 0 0 0 0 0 0 0
Neighs:    8000.0 ave 8000.0 max 8000.0 min
Histogram: 8 0 0 0 0 0 0 0 0 0
FullNghs:  16000.0 ave 16000.0 max 16000.0 min
Histogram: 8 0 0 0 0 0 0 0 0 0

Total # of neighbors = 128000
Ave neighs/atom = 64.0
Neighbor list builds = 0
Dangerous builds = 0
Setting up Verlet run ...
  Unit style    : metal
  Current step  : 100000
  Time step     : 0.0001
Per MPI rank memory allocation (min/avg/max) = 7.827 | 7.827 | 7.827 Mbytes
Step Time v_magnorm v_tmag Temp v_emag KinEng PotEng Press TotEng 
  100000           10   0.88959331    205.46301          200    -185.1423    51.678206   -8743.2756   -27114.058   -8691.5973 
  105000         10.5   0.89066505    200.33487    109.71051   -185.63206    28.348212   -8720.5326    -22043.67   -8692.1844 
  110000           11   0.89206602    201.59207    105.16848   -185.59785    27.174592   -8719.2726   -21993.348    -8692.098 
  115000         11.5    0.8938292    201.78548    102.61499   -185.77062    26.514794   -8718.7811   -21919.835   -8692.2663 
  120000           12   0.89594115    197.67702    103.52141   -186.35517    26.749005   -8719.5157   -22051.934   -8692.7667 
  125000         12.5   0.89765128    201.99675    104.17817   -185.63594    26.918705   -8718.9249   -22047.645   -8692.0062 
  130000           13   0.90117834    197.40032    106.76592   -186.78263    27.587356   -8720.5949   -22084.328   -8693.0075 
  135000         13.5    0.8958466    205.83961    104.77259   -185.22181    27.072296   -8718.4091   -21822.492   -8691.3368 
  140000           14   0.90090516    193.20497    110.54417   -187.18843    28.563621   -8721.7372   -22313.505   -8693.1735 
  145000         14.5    0.8993331    200.79959    103.30537   -186.23273    26.693181   -8718.7594   -21982.987   -8692.0662 
  150000           15   0.89886694    199.92789    107.39639   -186.38488    27.750264    -8719.932   -22127.808   -8692.1817 
  155000         15.5   0.89677755    200.09155    107.42289   -186.16701    27.757112   -8719.4936   -21971.963   -8691.7365 
  160000           16   0.89529287    206.59003    108.39529   -185.30241     28.00837   -8718.7762    -21852.43   -8690.7678 
  165000         16.5   0.90116739    197.75967    108.80434   -187.16529    28.114064   -8720.7006   -22238.117   -8692.5865 
  170000           17   0.89430182     200.2741    110.92585   -185.88942    28.662245   -8719.7332   -21895.357    -8691.071 
  175000         17.5    0.8964915    196.55102    108.36169    -186.4363    27.999689   -8719.4876   -21933.872   -8691.4879 
  180000           18   0.89526457    202.91543     109.9996     -185.553     28.42291   -8718.9533   -22020.379   -8690.5304 
  185000         18.5   0.89527222    200.45735    106.11395   -185.51141    27.418894   -8717.7609   -21588.484    -8690.342 
  190000           19   0.89146137    197.41016    106.11552   -185.88705    27.419298   -8718.0052   -21669.094   -8690.5859 
  195000         19.5   0.89567098    195.14135    105.80185   -186.60704     27.33825   -8718.5653   -21690.284   -8691.2271 
