LAMMPS (30 Jun 2020)
Lattice spacing in x,y,z = 2.8665 2.8665 2.8665
Created orthogonal box = (0.0 0.0 0.0) to (28.665 28.665 28.665)
  2 by 2 by 2 MPI processor grid
Created 2000 atoms
  create_atoms CPU = 0.001 seconds
Setting atom values ...
  2000 settings made for spin
Neighbor list info ...
  update every 10 steps, delay 20 steps, check yes
  max neighbors/atom: 2000, page size: 100000
  master list distance cutoff = 5.7733670002446
  ghost atom cutoff = 5.7733670002446
  binsize = 2.8866835001223, bins = 10.0 10.0 10.0
  2 neighbor lists, perpetual/occasional/extra = 2 0 0
  (1) pair eam/alloy, perpetual, half/full from (2)
      attributes: half, newton on
      pair build: halffull/newton
      stencil: none
      bin: none
  (2) pair spin/exchange, perpetual
      attributes: full, newton on
      pair build: full/bin/atomonly
      stencil: full/bin/3d
      bin: standard
Setting up Verlet run ...
  Unit style    : metal
  Current step  : 0
  Time step     : 0.0001
Per MPI rank memory allocation (min/avg/max) = 7.827 | 7.827 | 7.827 Mbytes
Step Time v_magnorm v_tmag Temp v_emag KinEng PotEng Press TotEng 
       0            0            1            0            0   -222.33076            0   -8782.3309   -36076.783   -8782.3309 
    5000          0.5   0.88964571    232.09778   0.29211258   -180.83587   0.07547927   -8740.7602   -29290.019   -8740.6847 
   10000            1   0.87908111    247.18294   0.85380218   -177.88004   0.22061482   -8737.6702    -28749.79   -8737.4496 
   15000          1.5   0.87685901    245.05705    1.3975835   -177.93506   0.36112304   -8737.5542   -28704.022   -8737.1931 
   20000            2   0.87055935    247.52653    1.9457654   -177.09858   0.50276832    -8736.581   -28505.908   -8736.0782 
   25000          2.5   0.86524495    256.42743    2.5559125   -175.51103   0.66042486   -8734.8575   -28209.628   -8734.1971 
   30000            3   0.86800788    251.77207    3.1440437   -176.56653    0.8123927   -8735.7649   -28336.121   -8734.9525 
   35000          3.5   0.86897097     242.7467     3.624969   -177.66546   0.93665948   -8736.6799   -28448.552   -8735.7432 
   40000            4   0.86896364     243.8219    4.1471339   -177.49431    1.0715822   -8736.3485   -28374.122   -8735.2769 
   45000          4.5   0.86931149    248.42415    4.8467568   -177.10726    1.2523585    -8735.831   -28255.202   -8734.5786 
   50000            5   0.86004671    258.14232    5.5556236   -174.83272    1.4355233    -8733.391    -27830.32   -8731.9555 
   55000          5.5   0.86286639    248.47808    6.1255713   -176.70189    1.5827927   -8735.1142   -28092.387   -8733.5314 
   60000            6   0.86375226    250.56225    6.7748502   -176.38943    1.7505605   -8734.6321   -27961.734   -8732.8815 
   65000          6.5   0.85848419    255.52581    7.4438005   -175.57725    1.9234113   -8733.6578   -27794.457   -8731.7344 
   70000            7   0.85856433    254.18725    7.9598695   -176.05365    2.0567589   -8733.9923   -27822.433   -8731.9355 
   75000          7.5   0.85576292    248.46369    8.3111961   -176.42242    2.1475385    -8734.129    -27802.67   -8731.9815 
   80000            8   0.85720033    247.76259    9.0770627   -176.67837    2.3454316   -8734.2868   -27804.788   -8731.9413 
   85000          8.5   0.86572788    242.66641    9.7046326   -178.20031      2.50759   -8735.6841   -28027.248   -8733.1765 
   90000            9   0.86313635    253.05242    10.483576   -176.35014     2.708862     -8733.77   -27706.052   -8731.0611 
   95000          9.5   0.86236964    253.54033    10.740229   -175.77861    2.7751788   -8732.9727   -27527.312   -8730.1975 
  100000           10   0.86097776    254.57831    11.130673   -175.43145    2.8760661   -8732.5137   -27428.523   -8729.6376 
Loop time of 282.506 on 8 procs for 100000 steps with 2000 atoms

Performance: 3.058 ns/day, 7.847 hours/ns, 353.975 timesteps/s
100.0% CPU use with 8 MPI tasks x no OpenMP threads

MPI task timing breakdown:
Section |  min time  |  avg time  |  max time  |%varavg| %total
---------------------------------------------------------------
Pair    | 66.018     | 66.608     | 67.338     |   4.2 | 23.58
Neigh   | 0.03812    | 0.038421   | 0.038831   |   0.1 |  0.01
Comm    | 9.6945     | 10.031     | 10.521     |   9.4 |  3.55
Output  | 0.43327    | 0.46221    | 0.49077    |   2.8 |  0.16
Modify  | 204.27     | 205        | 205.49     |   2.9 | 72.56
Other   |            | 0.3703     |            |       |  0.13

Nlocal:    250.0 ave 261.0 max 237.0 min
Histogram: 1 0 1 1 0 2 0 1 1 1
Nghost:    1479.0 ave 1492.0 max 1468.0 min
Histogram: 1 1 1 0 2 0 1 1 0 1
Neighs:    7996.375 ave 8353.0 max 7572.0 min
Histogram: 1 0 1 1 0 2 0 1 1 1
FullNghs:  15992.75 ave 16695.0 max 15163.0 min
Histogram: 1 0 1 1 0 2 0 1 1 1

Total # of neighbors = 127942
Ave neighs/atom = 63.971
Neighbor list builds = 57
Dangerous builds = 0
Setting up Verlet run ...
  Unit style    : metal
  Current step  : 100000
  Time step     : 0.0001
Per MPI rank memory allocation (min/avg/max) = 7.829 | 7.829 | 7.829 Mbytes
Step Time v_magnorm v_tmag Temp v_emag KinEng PotEng Press TotEng 
  100000           10   0.86097776    254.57831          250   -175.43145    64.597757   -8732.5137   -24629.535   -8667.9159 
  105000         10.5     0.868072    255.42267    138.99832   -176.07215    35.915919   -8704.4252   -18315.102   -8668.5092 
  110000           11   0.86522015    247.66796    131.99526   -176.52587    34.106392   -8702.8788   -18149.187   -8668.7724 
  115000         11.5   0.86732125     247.0948    135.80786   -176.86433    35.091533   -8703.9962   -18660.578   -8668.9046 
  120000           12   0.86807232    247.31992    132.48049   -177.31147    34.231769   -8703.3834   -18377.961   -8669.1516 
  125000         12.5   0.86775351    246.04798    135.15942   -177.44799    34.923981   -8704.0617   -18738.392   -8669.1377 
  130000           13    0.8700493    244.86467    141.40575   -177.60743    36.537978   -8705.6255   -18781.968   -8669.0876 
  135000         13.5   0.85874157    247.56586    132.32656   -176.16583    34.191996   -8701.7742   -18050.064   -8667.5822 
  140000           14   0.85924759     251.7376    135.47861   -175.37566    35.006458   -8701.7878   -18123.296   -8666.7813 
  145000         14.5   0.86585334    242.02821    133.05814   -177.32788     34.38103   -8702.9976   -18371.684   -8668.6165 
  150000           15   0.86047554    257.88535    132.15944   -174.80517    34.148813   -8700.0071    -17728.45   -8665.8582 
  155000         15.5   0.86538805    251.27236    135.31086   -175.82385    34.963112   -8701.7345   -18102.652   -8666.7714 
  160000           16   0.85969806    258.82422    135.77942   -174.73081    35.084184   -8700.6831   -17804.881   -8665.5989 
  165000         16.5    0.8523043    259.13003    136.24207   -173.96325    35.203729   -8699.7999    -17462.54   -8664.5961 
  170000           17   0.85718205     259.6067    140.34604   -173.95091    36.264159   -8700.7367   -17798.312   -8664.4725 
  175000         17.5   0.86927857    248.69128    138.73434   -176.81638    35.847708   -8703.1843   -18364.628   -8667.3366 
  180000           18   0.86572933    249.57327    133.70609   -176.49303    34.548454   -8701.4304   -18042.154   -8666.8819 
  185000         18.5   0.86999982    245.99161    137.00517   -177.68327    35.400907   -8703.3144    -18114.74   -8667.9135 
  190000           19   0.86454457    250.61456    138.49415    -175.7426    35.785646   -8701.6856   -18043.618      -8665.9 
  195000         19.5   0.86537934    254.25715    138.62437   -175.58092    35.819294    -8701.555   -17944.372   -8665.7357 
  200000           20   0.86869571    254.66622    134.91569   -175.76475    34.861005   -8700.6854   -17666.214   -8665.8243 
Loop time of 292.4 on 8 procs for 100000 steps with 2000 atoms

Performance: 2.955 ns/day, 8.122 hours/ns, 341.997 timesteps/s
100.0% CPU use with 8 MPI tasks x no OpenMP threads

MPI task timing breakdown:
Section |  min time  |  avg time  |  max time  |%varavg| %total
---------------------------------------------------------------
Pair    | 70.528     | 70.961     | 71.516     |   4.6 | 24.27
Neigh   | 0.75981    | 0.76576    | 0.77371    |   0.4 |  0.26
Comm    | 10.23      | 10.574     | 10.85      |   6.1 |  3.62
Output  | 0.4488     | 0.47912    | 0.50871    |   2.9 |  0.16
Modify  | 208.48     | 209.28     | 209.7      |   2.9 | 71.57
Other   |            | 0.3445     |            |       |  0.12

Nlocal:    250.0 ave 256.0 max 240.0 min
Histogram: 1 0 1 0 1 0 0 1 3 1
Nghost:    1361.75 ave 1367.0 max 1352.0 min
Histogram: 1 0 0 0 1 1 2 0 1 2
Neighs:    7792.75 ave 7956.0 max 7480.0 min
Histogram: 1 0 1 1 0 0 0 0 1 4
FullNghs:  15585.5 ave 15951.0 max 14939.0 min
Histogram: 1 0 1 0 1 0 0 0 3 2

Total # of neighbors = 124684
Ave neighs/atom = 62.342
Neighbor list builds = 1155
Dangerous builds = 0

Please see the log.cite file for references relevant to this simulation

Total wall time: 0:09:34
