LAMMPS (30 Jun 2020)
Lattice spacing in x,y,z = 2.8665 2.8665 2.8665
Created orthogonal box = (0.0 0.0 0.0) to (28.665 28.665 28.665)
  2 by 2 by 2 MPI processor grid
Created 2000 atoms
  create_atoms CPU = 0.001 seconds
Setting atom values ...
  2000 settings made for spin
Neighbor list info ...
  update every 10 steps, delay 20 steps, check yes
  max neighbors/atom: 2000, page size: 100000
  master list distance cutoff = 5.7733670002446
  ghost atom cutoff = 5.7733670002446
  binsize = 2.8866835001223, bins = 10.0 10.0 10.0
  2 neighbor lists, perpetual/occasional/extra = 2 0 0
  (1) pair eam/alloy, perpetual, half/full from (2)
      attributes: half, newton on
      pair build: halffull/newton
      stencil: none
      bin: none
  (2) pair spin/exchange, perpetual
      attributes: full, newton on
      pair build: full/bin/atomonly
      stencil: full/bin/3d
      bin: standard
Setting up Verlet run ...
  Unit style    : metal
  Current step  : 0
  Time step     : 0.0001
Per MPI rank memory allocation (min/avg/max) = 7.827 | 7.827 | 7.827 Mbytes
Step Time v_magnorm v_tmag Temp v_emag KinEng PotEng Press TotEng 
       0            0            1            0            0   -222.33076            0   -8782.3309   -36076.783   -8782.3309 
    5000          0.5   0.86956929    270.20993   0.42205567   -173.56276    0.1090554   -8733.4547   -28105.649   -8733.3456 
   10000            1   0.84911234    301.26237    1.1934733   -167.45577   0.30838278   -8727.1361   -27001.463   -8726.8277 
   15000          1.5   0.84499305    306.09757    2.1130229   -166.02228   0.54598616   -8725.4699   -26687.777   -8724.9239 
   20000            2   0.84482932     301.4993    3.0771656   -167.17295   0.79511199   -8726.3908    -26815.97   -8725.5957 
   25000          2.5   0.84808804    289.13314    3.9882172   -168.99249    1.0305195   -8727.9923   -27033.325   -8726.9618 
   30000            3   0.83958276    301.83078    4.8304775   -166.77549     1.248152   -8725.5629   -26601.428   -8724.3148 
   35000          3.5   0.84437591    295.20423    5.6059232   -168.25949    1.4485203   -8726.7871    -26736.87   -8725.3386 
   40000            4    0.8333495    307.16874    6.5464148   -165.06394    1.6915349   -8723.3379   -26151.245   -8721.6464 
   45000          4.5   0.83912632    291.87969    7.3774476   -167.85366    1.9062663   -8725.8638   -26496.263   -8723.9575 
   50000            5   0.83015244    304.45674    8.7338789   -165.71319     2.256756   -8723.5953    -26106.95   -8721.3385 
   55000          5.5   0.83380241     289.4954    9.3122538   -167.87269    2.4062029   -8725.3837   -26354.591   -8722.9775 
   60000            6   0.83104714     303.3079    10.691035   -165.56048    2.7624677   -8722.9999   -25929.159   -8720.2374 
   65000          6.5    0.8329444    303.85881    11.189708   -166.19405    2.8913203   -8723.3513    -25947.55     -8720.46 
   70000            7   0.83483557     297.0734    12.006172   -167.03788    3.1022872   -8723.9822   -25992.977   -8720.8799 
   75000          7.5   0.83281159    300.78428    13.263857   -166.58287    3.4272618   -8723.3719    -25885.12   -8719.9446 
   80000            8   0.83064878    310.54586    13.463471   -165.19907    3.4788401   -8721.5833    -25530.24   -8718.1045 
   85000          8.5   0.83566103     299.5384    14.781635   -166.93662    3.8194418   -8723.2516   -25781.961   -8719.4321 
   90000            9   0.83779262     297.2041    15.223245   -167.28556    3.9335499   -8723.2187   -25701.451   -8719.2851 
   95000          9.5   0.83283572    301.69881    16.014836   -166.15131      4.13809   -8721.8175   -25456.978   -8717.6795 
  100000           10   0.83286866    293.48804    17.086573   -167.21468    4.4150171   -8722.7184   -25561.713   -8718.3033 
Loop time of 276.239 on 8 procs for 100000 steps with 2000 atoms

Performance: 3.128 ns/day, 7.673 hours/ns, 362.005 timesteps/s
100.0% CPU use with 8 MPI tasks x no OpenMP threads

MPI task timing breakdown:
Section |  min time  |  avg time  |  max time  |%varavg| %total
---------------------------------------------------------------
Pair    | 66.957     | 67.606     | 68.098     |   5.1 | 24.47
Neigh   | 0.10796    | 0.10925    | 0.11021    |   0.2 |  0.04
Comm    | 9.5588     | 9.9306     | 10.567     |  11.0 |  3.59
Output  | 0.4412     | 0.4749     | 0.51082    |   3.1 |  0.17
Modify  | 197.26     | 197.75     | 198.34     |   2.6 | 71.59
Other   |            | 0.3645     |            |       |  0.13

Nlocal:    250.0 ave 266.0 max 244.0 min
Histogram: 3 1 1 2 0 0 0 0 0 1
Nghost:    1478.0 ave 1484.0 max 1462.0 min
Histogram: 1 0 0 0 0 0 1 2 1 3
Neighs:    7982.375 ave 8555.0 max 7760.0 min
Histogram: 2 2 1 1 1 0 0 0 0 1
FullNghs:  15964.75 ave 17003.0 max 15569.0 min
Histogram: 3 1 1 2 0 0 0 0 0 1

Total # of neighbors = 127718
Ave neighs/atom = 63.859
Neighbor list builds = 163
Dangerous builds = 0
Setting up Verlet run ...
  Unit style    : metal
  Current step  : 100000
  Time step     : 0.0001
Per MPI rank memory allocation (min/avg/max) = 7.829 | 7.829 | 7.829 Mbytes
Step Time v_magnorm v_tmag Temp v_emag KinEng PotEng Press TotEng 
  100000           10   0.83286866    293.48804          300   -167.21468    77.517309   -8722.7184   -22246.631    -8645.201 
  105000         10.5   0.82908698    304.79594     169.2223   -164.93332    43.725526   -8686.5727   -14350.805   -8642.8472 
  110000           11   0.83030559    309.35563    160.80943   -164.53165    41.551713   -8683.7041   -13979.481   -8642.1524 
  115000         11.5   0.82741866    298.94763    167.21413    -166.0242    43.206632   -8686.6225   -14861.837   -8643.4159 
  120000           12   0.82518342    311.40352     162.0603    -164.5524    41.874929    -8683.741   -14133.507    -8641.866 
  125000         12.5   0.82858442    293.91409    163.41162   -166.20556    42.224097   -8685.6464   -14549.134   -8643.4223 
  130000           13   0.83679259    300.41417    167.33995   -166.45625    43.239142    -8686.722   -14462.669   -8643.4828 
  135000         13.5   0.83867168    295.44149    166.65281   -167.04881    43.061592   -8686.7337   -14718.578   -8643.6721 
  140000           14    0.8440965     284.8273    163.66866   -168.94881    42.290515   -8687.6016    -14841.89   -8645.3111 
  145000         14.5   0.84649601    285.39235    163.00682   -168.66522    42.119499   -8686.7197   -14448.301   -8644.6002 
  150000           15   0.84167061    293.20858    166.23687   -167.18194    42.954115   -8686.0518    -14637.24   -8643.0977 
  155000         15.5   0.84091052    300.56207    164.46266   -166.63412    42.495675   -8684.9697   -14401.011   -8642.4741 
  160000           16    0.8363803    305.26759    168.00049   -165.57404     43.40982   -8684.5222   -14320.103   -8641.1124 
  165000         16.5   0.84538209    295.45185    172.81516   -167.78259    44.653888   -8687.6611   -14582.418   -8643.0072 
  170000           17   0.84167347     307.4324    169.92793   -165.70196    43.907852   -8684.6556   -13962.929   -8640.7478 
  175000         17.5   0.83859588    304.41923      170.042   -165.79122    43.937327   -8684.5421   -14090.076   -8640.6048 
  180000           18   0.84484091    287.60434    168.53159   -168.59457     43.54705   -8686.6795   -14354.597   -8643.1325 
  185000         18.5   0.83899591    292.32365    169.10357   -167.17898    43.694847   -8685.0694    -14191.45   -8641.3745 
  190000           19   0.84554989    287.33315    165.98507    -168.7974    42.889053   -8685.6393   -14436.346   -8642.7502 
  195000         19.5   0.84406769    298.29802    167.76248   -167.56358    43.348319   -8684.5285   -13895.531   -8641.1802 
  200000           20    0.8415168    289.08999    172.32619    -167.9106    44.527543    -8685.847   -14224.416   -8641.3194 
Loop time of 281.959 on 8 procs for 100000 steps with 2000 atoms

Performance: 3.064 ns/day, 7.832 hours/ns, 354.662 timesteps/s
100.0% CPU use with 8 MPI tasks x no OpenMP threads

MPI task timing breakdown:
Section |  min time  |  avg time  |  max time  |%varavg| %total
---------------------------------------------------------------
Pair    | 70.473     | 71.06      | 71.838     |   4.8 | 25.20
Neigh   | 0.8317     | 0.83762    | 0.84204    |   0.4 |  0.30
Comm    | 9.2978     | 10.045     | 10.553     |  12.7 |  3.56
Output  | 0.43374    | 0.46488    | 0.49863    |   3.0 |  0.16
Modify  | 198.68     | 199.22     | 199.82     |   2.9 | 70.66
Other   |            | 0.3265     |            |       |  0.12

Nlocal:    250.0 ave 259.0 max 238.0 min
Histogram: 2 0 0 0 1 0 0 3 1 1
Nghost:    1351.75 ave 1366.0 max 1334.0 min
Histogram: 1 0 0 0 2 2 1 1 0 1
Neighs:    7782.125 ave 8128.0 max 7416.0 min
Histogram: 2 0 0 1 0 1 1 2 0 1
FullNghs:  15564.25 ave 16167.0 max 14810.0 min
Histogram: 2 0 0 0 1 0 1 3 0 1

Total # of neighbors = 124514
Ave neighs/atom = 62.257
Neighbor list builds = 1271
Dangerous builds = 0

Please see the log.cite file for references relevant to this simulation

Total wall time: 0:09:18
