LAMMPS (30 Jun 2020)
Lattice spacing in x,y,z = 2.8665 2.8665 2.8665
Created orthogonal box = (0.0 0.0 0.0) to (28.665 28.665 28.665)
  2 by 2 by 2 MPI processor grid
Created 2000 atoms
  create_atoms CPU = 0.001 seconds
Setting atom values ...
  2000 settings made for spin
Neighbor list info ...
  update every 10 steps, delay 20 steps, check yes
  max neighbors/atom: 2000, page size: 100000
  master list distance cutoff = 5.7733670002446
  ghost atom cutoff = 5.7733670002446
  binsize = 2.8866835001223, bins = 10.0 10.0 10.0
  2 neighbor lists, perpetual/occasional/extra = 2 0 0
  (1) pair eam/alloy, perpetual, half/full from (2)
      attributes: half, newton on
      pair build: halffull/newton
      stencil: none
      bin: none
  (2) pair spin/exchange, perpetual
      attributes: full, newton on
      pair build: full/bin/atomonly
      stencil: full/bin/3d
      bin: standard
Setting up Verlet run ...
  Unit style    : metal
  Current step  : 0
  Time step     : 0.0001
Per MPI rank memory allocation (min/avg/max) = 7.827 | 7.827 | 7.827 Mbytes
Step Time v_magnorm v_tmag Temp v_emag KinEng PotEng Press TotEng 
       0            0            1            0            0   -222.33076            0   -8782.3309   -36076.783   -8782.3309 
    5000          0.5   0.82270203    357.96443   0.70544096   -157.01593   0.18227962   -8716.8302   -25373.455   -8716.6479 
   10000            1   0.79160619    389.15112    2.1752309   -148.66215   0.56206015   -8708.0602   -23854.893   -8707.4982 
   15000          1.5   0.76859105    425.01768    4.0184825   -141.65974    1.0383398   -8700.6413   -22573.288    -8699.603 
   20000            2   0.76447264    396.96876     5.811354   -144.27829    1.5016018   -8702.7765   -22815.267   -8701.2749 
   25000          2.5   0.76183508    391.91787    7.5031456   -145.67243    1.9387455   -8703.7503   -22894.908   -8701.8115 
   30000            3   0.76233935    385.70978    9.2661455   -145.96877    2.3942889   -8703.6024   -22769.851   -8701.2081 
   35000          3.5   0.75573685    398.64848    10.899122   -143.85007    2.8162353   -8700.9797    -22277.63   -8698.1635 
   40000            4   0.75897779    391.06519    12.708218   -145.78998    3.2836896   -8702.4744   -22439.197   -8699.1907 
   45000          4.5   0.75137028    419.87047    14.170308   -141.06546    3.6614804   -8697.2191   -21498.706   -8693.5576 
   50000            5   0.76628559    385.79503    16.522457   -146.49258    4.2692547   -8702.4256   -22282.014   -8698.1563 
   55000          5.5   0.76142388    400.86969    17.668217   -144.50428    4.5653087    -8699.963   -21812.336   -8695.3977 
   60000            6   0.76835954    402.66461    19.328767   -144.99889    4.9943801   -8700.0602   -21792.621   -8695.0658 
   65000          6.5   0.77673796    397.82853    20.943284   -146.43362    5.4115568   -8701.0855   -21889.786   -8695.6739 
   70000            7   0.76886465    397.86793     22.07456   -146.12734    5.7038683   -8700.2939   -21683.261   -8694.5901 
   75000          7.5   0.75821031    397.31984    24.325418   -144.72612    6.2854697   -8698.6574   -21357.072   -8692.3719 
   80000            8   0.76149711    403.29208    25.370064   -144.81308     6.555397   -8698.3418   -21241.759   -8691.7864 
   85000          8.5   0.75189629    410.14335    26.500256   -142.80987    6.8474286   -8695.8179   -20755.506   -8688.9705 
   90000            9   0.75265065    413.57328    28.810539   -142.20561    7.4443848   -8694.8616   -20530.486   -8687.4173 
   95000          9.5   0.74850315    397.29776    30.446109   -144.00465    7.8670015   -8696.3215   -20689.067   -8688.4545 
  100000           10   0.74989292    400.56999    32.756063   -143.95879    8.4638728   -8696.1102   -20655.058   -8687.6463 
Loop time of 252.929 on 8 procs for 100000 steps with 2000 atoms

Performance: 3.416 ns/day, 7.026 hours/ns, 395.368 timesteps/s
100.0% CPU use with 8 MPI tasks x no OpenMP threads

MPI task timing breakdown:
Section |  min time  |  avg time  |  max time  |%varavg| %total
---------------------------------------------------------------
Pair    | 67.831     | 68.326     | 68.968     |   4.9 | 27.01
Neigh   | 0.20686    | 0.20878    | 0.21078    |   0.3 |  0.08
Comm    | 8.8376     | 9.5949     | 10.108     |  13.8 |  3.79
Output  | 0.45058    | 0.48091    | 0.51325    |   2.9 |  0.19
Modify  | 173.67     | 173.85     | 173.96     |   0.7 | 68.73
Other   |            | 0.4713     |            |       |  0.19

Nlocal:    250.0 ave 266.0 max 238.0 min
Histogram: 1 1 1 1 0 2 1 0 0 1
Nghost:    1468.25 ave 1481.0 max 1454.0 min
Histogram: 1 0 1 1 0 1 1 2 0 1
Neighs:    7943.875 ave 8413.0 max 7560.0 min
Histogram: 1 1 1 1 0 1 2 0 0 1
FullNghs:  15887.75 ave 16915.0 max 15133.0 min
Histogram: 1 1 1 1 0 2 1 0 0 1

Total # of neighbors = 127102
Ave neighs/atom = 63.551
Neighbor list builds = 313
Dangerous builds = 0
Setting up Verlet run ...
  Unit style    : metal
  Current step  : 100000
  Time step     : 0.0001
Per MPI rank memory allocation (min/avg/max) = 7.829 | 7.829 | 7.829 Mbytes
Step Time v_magnorm v_tmag Temp v_emag KinEng PotEng Press TotEng 
  100000           10   0.74989292    400.56999          400   -143.95879    103.35641   -8696.1102    -16351.82   -8592.7538 
  105000         10.5   0.74899843    400.97333    230.80215   -142.00604    59.637206   -8650.3801   -6133.6821   -8590.7429 
  110000           11   0.76642648    388.09653    218.80891   -146.57294    56.538261    -8651.724   -6526.6993   -8595.1858 
  115000         11.5   0.76605871    390.65855     221.0871   -145.48167    57.126923   -8650.9097   -6963.3957   -8593.7828 
  120000           12   0.77826739    388.06497    221.51236    -148.5174    57.236807   -8653.6658   -7317.7608    -8596.429 
  125000         12.5   0.77742958    383.48982    217.20949   -148.60706    56.124984   -8652.1974   -7130.2221   -8596.0724 
  130000           13   0.76848757     399.8657    224.73862   -144.60304    58.070444   -8649.5832   -6219.5534   -8591.5128 
  135000         13.5   0.75901662    419.74846     217.6486   -141.98405    56.238447   -8644.9171   -5136.3367   -8588.6787 
  140000           14   0.76241606    408.16042    222.75495   -143.82753    57.557882   -8647.5517   -5829.3833   -8589.9938 
  145000         14.5   0.75699794    412.35554    224.79987   -142.15225    58.086269   -8645.5367   -5152.3301   -8587.4504 
  150000           15   0.75456102    411.00763    228.22373   -140.92706    58.970964   -8644.8151   -5480.2088   -8585.8441 
  155000         15.5    0.7562259     404.9856      226.681   -142.58144    58.572336    -8645.431   -5685.8841   -8586.8587 
  160000           16   0.76407948    402.11067    232.64528   -143.63799    60.113454   -8647.2834   -5906.0078   -8587.1699 
  165000         16.5   0.76321803    410.98728    227.01018   -142.48396    58.657394   -8644.5571   -5028.5913   -8585.8998 
  170000           17   0.77675466     401.9633     230.2783    -145.8818    59.501848   -8648.7578   -6173.6914    -8589.256 
  175000         17.5    0.7683678    381.65991    233.27663   -146.69261    60.276589   -8650.2259   -6325.5924   -8589.9493 
  180000           18   0.76598222    405.81964    235.25834    -144.4239    60.788645   -8648.1249   -5734.3969   -8587.3362 
  185000         18.5   0.76159203    399.29108     233.9549   -145.25243    60.451848   -8648.4576   -5998.8399   -8588.0058 
  190000           19   0.75407352    396.46889    229.81617    -144.7014    59.382436   -8646.4133   -5764.5228   -8587.0309 
  195000         19.5   0.75589796    397.23239    231.56611     -144.396    59.834605   -8646.1945   -5505.5424   -8586.3599 
  200000           20   0.76394311    396.50532    234.98466   -146.32036    60.717929   -8648.4628   -5444.9647   -8587.7448 
Loop time of 250.218 on 8 procs for 100000 steps with 2000 atoms

Performance: 3.453 ns/day, 6.950 hours/ns, 399.652 timesteps/s
100.0% CPU use with 8 MPI tasks x no OpenMP threads

MPI task timing breakdown:
Section |  min time  |  avg time  |  max time  |%varavg| %total
---------------------------------------------------------------
Pair    | 70.134     | 70.547     | 71.135     |   4.1 | 28.19
Neigh   | 0.9696     | 0.97619    | 0.98457    |   0.5 |  0.39
Comm    | 7.8829     | 8.5838     | 9.064      |  13.2 |  3.43
Output  | 0.43945    | 0.46899    | 0.50019    |   2.9 |  0.19
Modify  | 169.16     | 169.25     | 169.35     |   0.5 | 67.64
Other   |            | 0.3966     |            |       |  0.16

Nlocal:    250.0 ave 264.0 max 245.0 min
Histogram: 1 4 0 2 0 0 0 0 0 1
Nghost:    1334.5 ave 1345.0 max 1319.0 min
Histogram: 1 0 0 0 1 3 0 1 0 2
Neighs:    7756.0 ave 8247.0 max 7592.0 min
Histogram: 3 2 1 1 0 0 0 0 0 1
FullNghs:  15512.0 ave 16458.0 max 15179.0 min
Histogram: 2 3 1 1 0 0 0 0 0 1

Total # of neighbors = 124096
Ave neighs/atom = 62.048
Neighbor list builds = 1478
Dangerous builds = 0

Please see the log.cite file for references relevant to this simulation

Total wall time: 0:08:23
