LAMMPS (30 Jun 2020)
Lattice spacing in x,y,z = 2.8665 2.8665 2.8665
Created orthogonal box = (0.0 0.0 0.0) to (28.665 28.665 28.665)
  2 by 2 by 2 MPI processor grid
Created 2000 atoms
  create_atoms CPU = 0.001 seconds
Setting atom values ...
  2000 settings made for spin
Neighbor list info ...
  update every 10 steps, delay 20 steps, check yes
  max neighbors/atom: 2000, page size: 100000
  master list distance cutoff = 5.7733670002446
  ghost atom cutoff = 5.7733670002446
  binsize = 2.8866835001223, bins = 10.0 10.0 10.0
  2 neighbor lists, perpetual/occasional/extra = 2 0 0
  (1) pair eam/alloy, perpetual, half/full from (2)
      attributes: half, newton on
      pair build: halffull/newton
      stencil: none
      bin: none
  (2) pair spin/exchange, perpetual
      attributes: full, newton on
      pair build: full/bin/atomonly
      stencil: full/bin/3d
      bin: standard
Setting up Verlet run ...
  Unit style    : metal
  Current step  : 0
  Time step     : 0.0001
Per MPI rank memory allocation (min/avg/max) = 7.827 | 7.827 | 7.827 Mbytes
Step Time v_magnorm v_tmag Temp v_emag KinEng PotEng Press TotEng 
       0            0            1            0            0   -222.33076            0   -8782.3309   -36076.783   -8782.3309 
    5000          0.5   0.80490848     383.6366   0.88630777   -151.23337   0.22901398   -8710.9979   -24403.947   -8710.7689 
   10000            1   0.76585096    432.12207    2.5814499   -140.38492    0.6670235   -8699.7121   -22501.814    -8699.045 
   15000          1.5   0.73493392    453.43797    4.8315056    -133.4592    1.2484177   -8692.2051   -21142.803   -8690.9567 
   20000            2   0.73388936    447.43083    6.8607037   -134.80486    1.7727443   -8693.0399    -21212.36   -8691.2671 
   25000          2.5    0.7309171    435.99128     8.922913   -135.58806    2.3056007   -8693.2433   -21124.288   -8690.9377 
   30000            3   0.72988927    435.51725    11.314091   -135.14701    2.9234598      -8692.4   -20902.713   -8689.4766 
   35000          3.5    0.7230605    449.87588    13.233389   -133.31014    3.4193891   -8689.8505   -20373.349   -8686.4311 
   40000            4   0.72019044    447.02734    15.574903   -132.58918    4.0244152   -8688.5957   -20049.917   -8684.5713 
   45000          4.5   0.71681797    450.13148     17.93489   -132.71677    4.6342146   -8688.1949   -19903.565   -8683.5607 
   50000            5    0.7193225    454.04852    19.669038   -132.79521    5.0823029   -8687.6535   -19675.352   -8682.5712 
   55000          5.5   0.71738213    442.25765    21.947492   -133.60577     5.671035   -8687.9231   -19678.039   -8682.2521 
   60000            6    0.7023091     443.7506    23.869302   -133.02851    6.1676134   -8686.6994   -19376.852   -8680.5318 
   65000          6.5   0.70234066     436.5798    26.837729   -133.15018    6.9346285   -8686.3421   -19229.011   -8679.4074 
   70000            7   0.68677989    458.48354    27.643343    -128.3637    7.1427919   -8680.6494   -18118.208   -8673.5066 
   75000          7.5   0.67795119    467.54483     30.32601   -128.20399     7.835969   -8680.0367   -17997.641   -8672.2007 
   80000            8   0.70165797    444.84974    32.351447   -132.17118    8.3593236   -8683.4092   -18471.082   -8675.0499 
   85000          8.5    0.6897085    462.56902    35.281005   -128.81885    9.1162953    -8679.618   -17734.568   -8670.5017 
   90000            9   0.70369395    431.18825    37.548674   -133.98662    9.7022406   -8684.0737   -18330.939   -8674.3715 
   95000          9.5   0.70439391    433.90735    39.468659   -134.30353    10.198348   -8683.9788   -18304.919   -8673.7805 
  100000           10   0.69054007    455.40699    41.159865   -130.22107     10.63534   -8679.5088   -17545.938   -8668.8735 
Loop time of 299.413 on 8 procs for 100000 steps with 2000 atoms

Performance: 2.886 ns/day, 8.317 hours/ns, 333.987 timesteps/s
100.0% CPU use with 8 MPI tasks x no OpenMP threads

MPI task timing breakdown:
Section |  min time  |  avg time  |  max time  |%varavg| %total
---------------------------------------------------------------
Pair    | 68.627     | 68.932     | 69.416     |   3.3 | 23.02
Neigh   | 0.2439     | 0.24583    | 0.24739    |   0.2 |  0.08
Comm    | 11.638     | 12.138     | 12.616     |   8.8 |  4.05
Output  | 0.43834    | 0.46414    | 0.49243    |   2.5 |  0.16
Modify  | 216.91     | 217.22     | 217.43     |   1.0 | 72.55
Other   |            | 0.4129     |            |       |  0.14

Nlocal:    250.0 ave 272.0 max 232.0 min
Histogram: 1 0 0 3 2 0 0 0 1 1
Nghost:    1457.75 ave 1470.0 max 1442.0 min
Histogram: 1 0 1 1 1 1 0 0 1 2
Neighs:    7917.875 ave 8683.0 max 7347.0 min
Histogram: 1 0 2 3 0 0 0 1 0 1
FullNghs:  15835.75 ave 17286.0 max 14665.0 min
Histogram: 1 0 2 2 1 0 0 1 0 1

Total # of neighbors = 126686
Ave neighs/atom = 63.343
Neighbor list builds = 368
Dangerous builds = 0
Setting up Verlet run ...
  Unit style    : metal
  Current step  : 100000
  Time step     : 0.0001
Per MPI rank memory allocation (min/avg/max) = 7.83 | 7.83 | 7.83 Mbytes
Step Time v_magnorm v_tmag Temp v_emag KinEng PotEng Press TotEng 
  100000           10   0.69054007    455.40699          450   -130.22107    116.27596   -8679.5088    -12755.29   -8563.2329 
  105000         10.5   0.70368053    444.58646    263.64065   -130.36812    68.122378   -8631.4358   -1922.8615   -8563.3134 
  110000           11   0.70607854    454.99426    251.94838   -130.59972    65.101201   -8628.3854   -1610.6231   -8563.2842 
  115000         11.5   0.71355086    441.78383    249.80874   -132.32195    64.548338   -8628.9089   -1934.6909   -8564.3605 
  120000           12    0.7216608    451.14552    250.61898   -133.47409    64.757696   -8629.5661   -1813.6151   -8564.8084 
  125000         12.5    0.7242694    446.48318    255.53581   -133.97089     66.02816   -8630.8735   -2416.6126   -8564.8453 
  130000           13   0.72365616    451.41873    259.08769   -133.23262    66.945936   -8630.7542   -2009.0702   -8563.8082 
  135000         13.5   0.71827706    453.23276    254.59051   -133.02954    65.783903   -8629.0429   -1431.6125    -8563.259 
  140000           14    0.7087527    440.23826    257.18277     -132.293    66.453721   -8628.0428   -1764.6582   -8561.5891 
  145000         14.5   0.71732501    437.70391    264.11197   -133.32889    68.244163   -8630.1274   -1703.8349   -8561.8833 
  150000           15   0.71808844    458.87649    261.49317   -132.85115     67.56749   -8629.0489   -1806.7957   -8561.4814 
  155000         15.5   0.71411857    447.91478    256.57093   -133.43361    66.295628   -8627.9183   -1646.8149   -8561.6227 
  160000           16   0.71733268     441.0147     263.6976   -133.11868    68.137094   -8628.9425   -2273.7949   -8560.8054 
  165000         16.5   0.71650126    450.87587    263.12932   -132.27148    67.990255   -8627.4551   -1685.9377   -8559.4648 
  170000           17   0.71355388    460.97232    259.47314   -130.91101    67.045531   -8624.5946   -1335.8147    -8557.549 
  175000         17.5   0.72121991    441.76004    262.79272   -134.72661     67.90328   -8628.8045   -1506.4296   -8560.9012 
  180000           18   0.71915851    445.00791    266.38719   -134.87001     68.83206   -8629.2134   -1489.0117   -8560.3814 
  185000         18.5   0.72020545    429.89952    266.77205   -136.70267    68.931505   -8630.3467   -1830.9581   -8561.4152 
  190000           19   0.70920925    447.99037    272.84092   -132.54236    70.499647   -8626.6238   -1052.6739   -8556.1241 
  195000         19.5   0.71138695    453.90118    275.02317   -132.67988     71.06352   -8627.0587   -1202.8042   -8555.9952 
