LAMMPS (30 Jun 2020)
Lattice spacing in x,y,z = 2.8665 2.8665 2.8665
Created orthogonal box = (0.0 0.0 0.0) to (28.665 28.665 28.665)
  2 by 2 by 2 MPI processor grid
Created 2000 atoms
  create_atoms CPU = 0.001 seconds
Setting atom values ...
  2000 settings made for spin
Neighbor list info ...
  update every 10 steps, delay 20 steps, check yes
  max neighbors/atom: 2000, page size: 100000
  master list distance cutoff = 5.7733670002446
  ghost atom cutoff = 5.7733670002446
  binsize = 2.8866835001223, bins = 10.0 10.0 10.0
  2 neighbor lists, perpetual/occasional/extra = 2 0 0
  (1) pair eam/alloy, perpetual, half/full from (2)
      attributes: half, newton on
      pair build: halffull/newton
      stencil: none
      bin: none
  (2) pair spin/exchange, perpetual
      attributes: full, newton on
      pair build: full/bin/atomonly
      stencil: full/bin/3d
      bin: standard
Setting up Verlet run ...
  Unit style    : metal
  Current step  : 0
  Time step     : 0.0001
Per MPI rank memory allocation (min/avg/max) = 7.827 | 7.827 | 7.827 Mbytes
Step Time v_magnorm v_tmag Temp v_emag KinEng PotEng Press TotEng 
       0            0            1            0            0   -222.33076            0   -8782.3309   -36076.783   -8782.3309 
    5000          0.5   0.77555987    437.93982    1.0925737   -140.27038   0.28231124    -8699.989     -22627.6   -8699.7067 
   10000            1    0.7373172    473.38042    3.2133542   -131.44925    0.8303019   -8690.6006   -20994.701   -8689.7703 
   15000          1.5   0.69469404    503.88857    5.9649809   -121.69561    1.5412976   -8680.1417   -19149.039   -8678.6004 
   20000            2   0.68008966     500.4976    8.9233453   -121.46403    2.3057124   -8679.2497   -18871.139    -8676.944 
   25000          2.5    0.6744693    490.85988    11.969683   -121.80219    3.0928588   -8678.7905   -18630.054   -8675.6976 
   30000            3   0.68072134    503.49041    13.929816   -121.39885    3.5993394   -8677.5611   -18306.748   -8673.9617 
   35000          3.5   0.67054301    498.10861    16.647029   -121.34953    4.3014429   -8676.8179   -18056.372   -8672.5165 
   40000            4   0.66139202    494.36162    20.127947   -120.37541    5.2008809   -8675.1982   -17672.466   -8669.9974 
   45000          4.5   0.66397599    509.78797    23.205672   -118.36703    5.9961376   -8672.3973    -17087.33   -8666.4011 
   50000            5    0.6664032     493.0358    26.274134   -121.67403    6.7890005   -8675.0032   -17396.008   -8668.2142 
   55000          5.5   0.66977474    492.82693    28.642304   -122.52001    7.4009145   -8674.9317    -17220.02   -8667.5308 
   60000            6   0.67702308    504.17241     32.11868    -120.9149    8.2991788   -8672.7234    -16781.75   -8664.4243 
   65000          6.5   0.65890002    499.60791    34.232147   -118.72393    8.8452797    -8669.715   -16155.182   -8660.8697 
   70000            7   0.64449227    506.90589    37.605194   -114.84302    9.7168449    -8665.325    -15356.67   -8655.6081 
   75000          7.5   0.66764167    493.83934    39.815371   -120.21117    10.287935   -8669.9345   -15973.766   -8659.6466 
   80000            8   0.67199774     505.4179    42.681481   -121.07319    11.028512   -8670.0656   -15874.561   -8659.0371 
   85000          8.5   0.65956451    502.30151    44.671256   -119.91137    11.542652   -8667.9472   -15445.357   -8656.4045 
   90000            9   0.66928276    486.09048    47.453974   -121.70547    12.261681   -8669.3682   -15600.094   -8657.1065 
   95000          9.5   0.67153387     500.7968    50.235023    -120.6404    12.980279   -8667.6528   -15299.779   -8654.6726 
  100000           10    0.6668947    483.31573    53.344352   -122.91662    13.783702   -8669.5183   -15495.435   -8655.7346 
Loop time of 287.627 on 8 procs for 100000 steps with 2000 atoms

Performance: 3.004 ns/day, 7.990 hours/ns, 347.673 timesteps/s
100.0% CPU use with 8 MPI tasks x no OpenMP threads

MPI task timing breakdown:
Section |  min time  |  avg time  |  max time  |%varavg| %total
---------------------------------------------------------------
Pair    | 68.625     | 69.194     | 69.499     |   3.2 | 24.06
Neigh   | 0.29317    | 0.2958     | 0.2975     |   0.3 |  0.10
Comm    | 11.264     | 11.655     | 12.092     |   7.4 |  4.05
Output  | 0.43681    | 0.46722    | 0.49849    |   2.9 |  0.16
Modify  | 205.17     | 205.62     | 206.11     |   2.5 | 71.49
Other   |            | 0.3905     |            |       |  0.14

Nlocal:    250.0 ave 285.0 max 230.0 min
Histogram: 2 0 1 1 3 0 0 0 0 1
Nghost:    1442.75 ave 1465.0 max 1406.0 min
Histogram: 1 0 0 0 0 3 1 1 0 2
Neighs:    7890.375 ave 8993.0 max 7219.0 min
Histogram: 2 0 1 1 3 0 0 0 0 1
FullNghs:  15780.75 ave 18033.0 max 14486.0 min
Histogram: 2 0 1 2 2 0 0 0 0 1

Total # of neighbors = 126246
Ave neighs/atom = 63.123
Neighbor list builds = 443
Dangerous builds = 0
Setting up Verlet run ...
  Unit style    : metal
  Current step  : 100000
  Time step     : 0.0001
Per MPI rank memory allocation (min/avg/max) = 7.83 | 7.83 | 7.83 Mbytes
Step Time v_magnorm v_tmag Temp v_emag KinEng PotEng Press TotEng 
  100000           10    0.6668947    483.31573          500   -122.91662    129.19551   -8669.5183   -10261.678   -8540.3228 
  105000         10.5     0.671748    488.76106    297.05632   -122.37038    76.756689   -8616.3022    1673.4868   -8539.5455 
  110000           11   0.65161986    498.85891    288.12652   -117.95969    74.449307   -8609.2313      2675.94    -8534.782 
  115000         11.5   0.64860849    492.16231    279.47422   -118.02855    72.213632   -8606.0714    3045.8224   -8533.8578 
  120000           12   0.64642374    507.73767    281.46293   -116.70154    72.727496   -8605.3057    2940.0544   -8532.5782 
  125000         12.5   0.64475043    505.28631       290.55   -116.72609    75.075514   -8607.0854    2504.8465   -8532.0099 
  130000           13   0.64083574     499.4733    288.23757   -116.90166    74.478001   -8605.8154    3064.2368   -8531.3374 
  135000         13.5   0.66051008    498.99051    292.01025    -119.1543    75.452829   -8608.4372    2749.7676   -8532.9844 
  140000           14    0.6561041     519.2058    292.06096   -116.90846    75.465931   -8606.1583    3526.6778   -8530.6924 
  145000         14.5   0.65744647    499.05588    298.37099   -118.59071    77.096389   -8608.9721    3110.0585   -8531.8757 
  150000           15    0.6689535    475.37985    294.27264   -123.46118    76.037411   -8612.0588    2134.5834   -8536.0214 
  155000         15.5   0.66420804    494.40689    288.96433   -118.23425    74.665791   -8605.1524    3486.3466   -8530.4866 
  160000           16   0.68452912    494.08414    291.69362   -122.97798    75.371015   -8610.6512    2035.1597   -8535.2802 
  165000         16.5   0.67207354    515.93709    291.43172   -119.32893    75.303342    -8606.423    3283.5757   -8531.1197 
  170000           17    0.6755072    492.03872    293.45844   -121.34572    75.827028   -8608.2613    3134.0344   -8532.4343 
  175000         17.5   0.70035223    483.92719    293.87839   -124.46311     75.93554   -8610.9796    2968.4007    -8535.044 
  180000           18    0.7039066    478.95452    302.20744   -125.37131    78.087691   -8613.4883    2109.6595   -8535.4006 
  185000         18.5   0.68781941    501.22333    300.25057   -121.73052    77.582053   -8608.7895    2899.3523   -8531.2074 
  190000           19   0.66936004    498.76252    304.18065   -119.45935    78.597551   -8607.1408    3748.3838   -8528.5433 
  195000         19.5   0.67157105    502.56916    305.13446   -119.39093    78.844007   -8606.7819    3573.0531   -8527.9379 
  200000           20   0.68739504    496.43148    295.97843   -122.91575     76.47817   -8607.4582    3396.2455     -8530.98 
Loop time of 279.656 on 8 procs for 100000 steps with 2000 atoms

Performance: 3.090 ns/day, 7.768 hours/ns, 357.582 timesteps/s
100.0% CPU use with 8 MPI tasks x no OpenMP threads

MPI task timing breakdown:
Section |  min time  |  avg time  |  max time  |%varavg| %total
---------------------------------------------------------------
Pair    | 70.678     | 71.116     | 71.654     |   3.4 | 25.43
Neigh   | 1.0944     | 1.1045     | 1.1114     |   0.5 |  0.39
Comm    | 9.5266     | 10.038     | 10.557     |  11.5 |  3.59
Output  | 0.43296    | 0.46288    | 0.49361    |   2.8 |  0.17
Modify  | 196.19     | 196.61     | 197.05     |   2.2 | 70.30
Other   |            | 0.324      |            |       |  0.12

Nlocal:    250.0 ave 261.0 max 232.0 min
Histogram: 1 0 0 0 3 0 1 0 0 3
Nghost:    1319.875 ave 1338.0 max 1294.0 min
Histogram: 1 0 0 1 2 0 0 1 2 1
Neighs:    7736.5 ave 8103.0 max 7147.0 min
Histogram: 1 0 0 0 2 2 0 0 1 2
FullNghs:  15473.0 ave 16138.0 max 14352.0 min
Histogram: 1 0 0 0 3 0 1 0 0 3

Total # of neighbors = 123784
Ave neighs/atom = 61.892
Neighbor list builds = 1669
Dangerous builds = 0

Please see the log.cite file for references relevant to this simulation

Total wall time: 0:09:27
