LAMMPS (30 Jun 2020)
Lattice spacing in x,y,z = 2.8665 2.8665 2.8665
Created orthogonal box = (0.0 0.0 0.0) to (28.665 28.665 28.665)
  2 by 2 by 2 MPI processor grid
Created 2000 atoms
  create_atoms CPU = 0.001 seconds
Setting atom values ...
  2000 settings made for spin
Neighbor list info ...
  update every 10 steps, delay 20 steps, check yes
  max neighbors/atom: 2000, page size: 100000
  master list distance cutoff = 5.7733670002446
  ghost atom cutoff = 5.7733670002446
  binsize = 2.8866835001223, bins = 10.0 10.0 10.0
  2 neighbor lists, perpetual/occasional/extra = 2 0 0
  (1) pair eam/alloy, perpetual, half/full from (2)
      attributes: half, newton on
      pair build: halffull/newton
      stencil: none
      bin: none
  (2) pair spin/exchange, perpetual
      attributes: full, newton on
      pair build: full/bin/atomonly
      stencil: full/bin/3d
      bin: standard
Setting up Verlet run ...
  Unit style    : metal
  Current step  : 0
  Time step     : 0.0001
Per MPI rank memory allocation (min/avg/max) = 7.827 | 7.827 | 7.827 Mbytes
Step Time v_magnorm v_tmag Temp v_emag KinEng PotEng Press TotEng 
       0            0            1           -0    150.00537    222.33076    38.760043   -8337.6694    1757.7645   -8298.9093 
    5000          0.5   0.46894008    -1484.381    150.00537    33.596308    38.760043   -8526.4038    1757.7645   -8487.6438 
   10000            1   0.12561967    435.68823    150.00537   -27.040271    38.760043   -8587.0404    1757.7645   -8548.2804 
   15000          1.5  0.024366811    212.90762    150.00537   -37.123444    38.760043   -8597.1236    1757.7645   -8558.3635 
   20000            2 0.0024162337    204.92019    150.00537   -42.924115    38.760043   -8602.9243    1757.7645   -8564.1642 
   25000          2.5 0.0043142142    183.77285    150.00537   -47.632365    38.760043   -8607.6325    1757.7645   -8568.8725 
   30000            3 0.0053904757    173.61377    150.00537   -50.863937    38.760043   -8610.8641    1757.7645    -8572.104 
   35000          3.5 0.0062575864    176.72693    150.00537   -52.709262    38.760043   -8612.7094    1757.7645   -8573.9494 
   40000            4 0.0048979787    168.77696    150.00537    -54.72676    38.760043   -8614.7269    1757.7645   -8575.9669 
   45000          4.5 0.0049875614    159.65681    150.00537   -57.173992    38.760043   -8617.1741    1757.7645   -8578.4141 
   50000            5 0.0072222565    155.87214    150.00537   -57.862994    38.760043   -8617.8631    1757.7645   -8579.1031 
   55000          5.5 0.0081308226    154.42125    150.00537   -58.820582    38.760043   -8618.8207    1757.7645   -8580.0607 
   60000            6 0.0087102734    155.93621    150.00537   -59.193272    38.760043   -8619.1934    1757.7645   -8580.4334 
   65000          6.5 0.0021805192    152.23752    150.00537   -59.423522    38.760043   -8619.4237    1757.7645   -8580.6636 
   70000            7 0.0029017039    158.74796    150.00537   -59.660619    38.760043   -8619.6608    1757.7645   -8580.9007 
   75000          7.5  0.006577413    151.68997    150.00537    -60.74758    38.760043   -8620.7477    1757.7645   -8581.9877 
   80000            8 0.0038195951    145.30225    150.00537   -60.753576    38.760043   -8620.7537    1757.7645   -8581.9937 
   85000          8.5 0.0088668172    155.35702    150.00537   -60.181086    38.760043   -8620.1812    1757.7645   -8581.4212 
   90000            9 0.0092272486    141.84034    150.00537   -60.378779    38.760043   -8620.3789    1757.7645   -8581.6189 
   95000          9.5 0.0032250405    145.54645    150.00537     -60.7058    38.760043   -8620.7059    1757.7645   -8581.9459 
  100000           10 0.0042893037    142.58159    150.00537    -61.18679    38.760043   -8621.1869    1757.7645   -8582.4269 
Loop time of 262.711 on 8 procs for 100000 steps with 2000 atoms

Performance: 3.289 ns/day, 7.298 hours/ns, 380.647 timesteps/s
100.0% CPU use with 8 MPI tasks x no OpenMP threads

MPI task timing breakdown:
Section |  min time  |  avg time  |  max time  |%varavg| %total
---------------------------------------------------------------
Pair    | 54.997     | 55.854     | 56.622     |   6.8 | 21.26
Neigh   | 0          | 0          | 0          |   0.0 |  0.00
Comm    | 8.3545     | 9.1465     | 10.255     |  19.9 |  3.48
Output  | 0.41091    | 0.43841    | 0.46676    |   2.6 |  0.17
Modify  | 196.35     | 196.92     | 197.42     |   2.3 | 74.96
Other   |            | 0.3553     |            |       |  0.14

Nlocal:    250.0 ave 250.0 max 250.0 min
Histogram: 8 0 0 0 0 0 0 0 0 0
Nghost:    1479.0 ave 1479.0 max 1479.0 min
Histogram: 8 0 0 0 0 0 0 0 0 0
Neighs:    8000.0 ave 8000.0 max 8000.0 min
Histogram: 8 0 0 0 0 0 0 0 0 0
FullNghs:  16000.0 ave 16000.0 max 16000.0 min
Histogram: 8 0 0 0 0 0 0 0 0 0

Total # of neighbors = 128000
Ave neighs/atom = 64.0
Neighbor list builds = 0
Dangerous builds = 0

Please see the log.cite file for references relevant to this simulation

Total wall time: 0:04:22
