LAMMPS (30 Jun 2020)
Lattice spacing in x,y,z = 2.8665 2.8665 2.8665
Created orthogonal box = (0.0 0.0 0.0) to (28.665 28.665 28.665)
  2 by 2 by 2 MPI processor grid
Created 2000 atoms
  create_atoms CPU = 0.001 seconds
Setting atom values ...
  2000 settings made for spin
Neighbor list info ...
  update every 10 steps, delay 20 steps, check yes
  max neighbors/atom: 2000, page size: 100000
  master list distance cutoff = 5.7733670002446
  ghost atom cutoff = 5.7733670002446
  binsize = 2.8866835001223, bins = 10.0 10.0 10.0
  2 neighbor lists, perpetual/occasional/extra = 2 0 0
  (1) pair eam/alloy, perpetual, half/full from (2)
      attributes: half, newton on
      pair build: halffull/newton
      stencil: none
      bin: none
  (2) pair spin/exchange, perpetual
      attributes: full, newton on
      pair build: full/bin/atomonly
      stencil: full/bin/3d
      bin: standard
Setting up Verlet run ...
  Unit style    : metal
  Current step  : 0
  Time step     : 0.0001
Per MPI rank memory allocation (min/avg/max) = 7.827 | 7.827 | 7.827 Mbytes
Step Time v_magnorm v_tmag Temp v_emag KinEng PotEng Press TotEng 
       0            0            1           -0    100.00358    222.33076    25.840028   -8337.6694    1171.8608   -8311.8294 
    5000          0.5   0.54828946    -1202.645    100.00358    51.902601    25.840028   -8508.0975    1171.8608   -8482.2575 
   10000            1   0.14611601     458.3937    100.00358   -27.833827    25.840028    -8587.834    1171.8608   -8561.9939 
   15000          1.5  0.028755136    197.78087    100.00358   -43.584998    25.840028   -8603.5851    1171.8608   -8577.7451 
   20000            2  0.014413742    166.51978    100.00358   -53.449298    25.840028   -8613.4494    1171.8608   -8587.6094 
   25000          2.5   0.01101005    137.28611    100.00358   -61.542008    25.840028   -8621.5421    1171.8608   -8595.7021 
   30000            3 0.0038415339    118.15201    100.00358   -66.336896    25.840028    -8626.337    1171.8608    -8600.497 
   35000          3.5 0.0053034885    112.62365    100.00358   -68.336464    25.840028   -8628.3366    1171.8608   -8602.4966 
   40000            4 0.0051379863    111.33203    100.00358   -69.255846    25.840028    -8629.256    1171.8608    -8603.416 
   45000          4.5 0.0085755463     101.1662    100.00358   -70.756063    25.840028   -8630.7562    1171.8608   -8604.9162 
   50000            5 0.0071245263      102.863    100.00358   -70.195795    25.840028   -8630.1959    1171.8608   -8604.3559 
   55000          5.5 0.0040209646    98.827318    100.00358   -70.716928    25.840028   -8630.7171    1171.8608    -8604.877 
   60000            6  0.007149036    99.782245    100.00358   -70.724881    25.840028    -8630.725    1171.8608    -8604.885 
   65000          6.5 0.0064556083    103.29866    100.00358   -70.437326    25.840028   -8630.4375    1171.8608   -8604.5974 
   70000            7 0.0052004074    98.912884    100.00358   -70.921775    25.840028   -8630.9219    1171.8608   -8605.0819 
   75000          7.5 0.0060158818    98.723799    100.00358   -71.235802    25.840028   -8631.2359    1171.8608   -8605.3959 
   80000            8 0.0042444318    99.614082    100.00358   -71.684045    25.840028   -8631.6842    1171.8608   -8605.8442 
   85000          8.5 0.0081386413    97.374414    100.00358   -71.404126    25.840028   -8631.4043    1171.8608   -8605.5642 
   90000            9 0.0052135441    100.56819    100.00358   -71.494868    25.840028    -8631.495    1171.8608    -8605.655 
   95000          9.5 0.0044652711     95.82762    100.00358   -71.538059    25.840028   -8631.5382    1171.8608   -8605.6982 
  100000           10 0.0067889826    99.371534    100.00358   -71.451743    25.840028   -8631.4519    1171.8608   -8605.6119 
Loop time of 254.619 on 8 procs for 100000 steps with 2000 atoms

Performance: 3.393 ns/day, 7.073 hours/ns, 392.743 timesteps/s
100.0% CPU use with 8 MPI tasks x no OpenMP threads

MPI task timing breakdown:
Section |  min time  |  avg time  |  max time  |%varavg| %total
---------------------------------------------------------------
Pair    | 54.824     | 56.032     | 56.771     |   9.1 | 22.01
Neigh   | 0          | 0          | 0          |   0.0 |  0.00
Comm    | 8.2529     | 8.8113     | 9.5897     |  14.3 |  3.46
Output  | 0.422      | 0.45284    | 0.48398    |   3.1 |  0.18
Modify  | 188.22     | 188.97     | 189.51     |   2.9 | 74.22
Other   |            | 0.3524     |            |       |  0.14

Nlocal:    250.0 ave 250.0 max 250.0 min
Histogram: 8 0 0 0 0 0 0 0 0 0
Nghost:    1479.0 ave 1479.0 max 1479.0 min
Histogram: 8 0 0 0 0 0 0 0 0 0
Neighs:    8000.0 ave 8000.0 max 8000.0 min
Histogram: 8 0 0 0 0 0 0 0 0 0
FullNghs:  16000.0 ave 16000.0 max 16000.0 min
Histogram: 8 0 0 0 0 0 0 0 0 0

Total # of neighbors = 128000
Ave neighs/atom = 64.0
Neighbor list builds = 0
Dangerous builds = 0

Please see the log.cite file for references relevant to this simulation

Total wall time: 0:04:14
