LAMMPS (30 Jun 2020)
Lattice spacing in x,y,z = 2.8665 2.8665 2.8665
Created orthogonal box = (0.0 0.0 0.0) to (28.665 28.665 28.665)
  2 by 2 by 2 MPI processor grid
Created 2000 atoms
  create_atoms CPU = 0.001 seconds
Setting atom values ...
  2000 settings made for spin
Neighbor list info ...
  update every 10 steps, delay 20 steps, check yes
  max neighbors/atom: 2000, page size: 100000
  master list distance cutoff = 5.7733670002446
  ghost atom cutoff = 5.7733670002446
  binsize = 2.8866835001223, bins = 10.0 10.0 10.0
  2 neighbor lists, perpetual/occasional/extra = 2 0 0
  (1) pair eam/alloy, perpetual, half/full from (2)
      attributes: half, newton on
      pair build: halffull/newton
      stencil: none
      bin: none
  (2) pair spin/exchange, perpetual
      attributes: full, newton on
      pair build: full/bin/atomonly
      stencil: full/bin/3d
      bin: standard
Setting up Verlet run ...
  Unit style    : metal
  Current step  : 0
  Time step     : 0.0001
Per MPI rank memory allocation (min/avg/max) = 7.827 | 7.827 | 7.827 Mbytes
Step Time v_magnorm v_tmag Temp v_emag KinEng PotEng Press TotEng 
       0            0            1           -0    200.00716    222.33076    51.680057   -8337.6694    2343.6682   -8285.9893 
    5000          0.5   0.41241075   -1837.1512    200.00716    22.437944    51.680057   -8537.5622    2343.6682   -8485.8821 
   10000            1  0.093124917    413.03273    200.00716   -24.986258    51.680057   -8584.9864    2343.6682   -8533.3063 
   15000          1.5  0.031726535    255.25985    200.00716   -31.997216    51.680057   -8591.9974    2343.6682   -8540.3173 
   20000            2 0.0071871273    225.80062    200.00716   -34.337124    51.680057   -8594.3373    2343.6682   -8542.6572 
   25000          2.5 0.0094069197    208.23584    200.00716   -36.799955    51.680057   -8596.8001    2343.6682     -8545.12 
   30000            3 0.0086212187    209.82135    200.00716   -37.490615    51.680057   -8597.4908    2343.6682   -8545.8107 
   35000          3.5 0.0083594894    198.85381    200.00716   -38.449437    51.680057   -8598.4496    2343.6682   -8546.7695 
   40000            4 0.0092564381    198.01862    200.00716   -40.299211    51.680057   -8600.2993    2343.6682   -8548.6193 
   45000          4.5 0.0083303919    222.43458    200.00716   -39.852226    51.680057   -8599.8524    2343.6682   -8548.1723 
   50000            5   0.01032283    211.52337    200.00716   -40.853519    51.680057   -8600.8537    2343.6682   -8549.1736 
   55000          5.5 0.00099318821    215.30818    200.00716   -40.725867    51.680057    -8600.726    2343.6682   -8549.0459 
   60000            6 0.0096777253    214.44911    200.00716   -41.249933    51.680057   -8601.2501    2343.6682     -8549.57 
   65000          6.5 0.0094962741    213.04625    200.00716   -40.847961    51.680057   -8600.8481    2343.6682    -8549.168 
   70000            7 0.0082393876    219.32513    200.00716   -40.671881    51.680057    -8600.672    2343.6682    -8548.992 
   75000          7.5 0.0058374818    220.86202    200.00716   -42.250223    51.680057   -8602.2504    2343.6682   -8550.5703 
   80000            8 0.0094153985    195.19065    200.00716    -44.00779    51.680057   -8604.0079    2343.6682   -8552.3279 
   85000          8.5  0.016337481    214.24457    200.00716    -42.35426    51.680057   -8602.3544    2343.6682   -8550.6743 
   90000            9 0.0058156818    205.98875    200.00716   -43.657504    51.680057   -8603.6576    2343.6682   -8551.9776 
   95000          9.5 0.0063439184     191.3033    200.00716   -43.695384    51.680057   -8603.6955    2343.6682   -8552.0155 
  100000           10 0.0081221921    199.82441    200.00716   -44.885428    51.680057   -8604.8856    2343.6682   -8553.2055 
Loop time of 245.698 on 8 procs for 100000 steps with 2000 atoms

Performance: 3.517 ns/day, 6.825 hours/ns, 407.004 timesteps/s
100.0% CPU use with 8 MPI tasks x no OpenMP threads

MPI task timing breakdown:
Section |  min time  |  avg time  |  max time  |%varavg| %total
---------------------------------------------------------------
Pair    | 54.867     | 55.642     | 56.258     |   6.2 | 22.65
Neigh   | 0          | 0          | 0          |   0.0 |  0.00
Comm    | 7.5694     | 8.2625     | 9.1127     |  16.3 |  3.36
Output  | 0.41562    | 0.44643    | 0.47806    |   3.0 |  0.18
Modify  | 180.76     | 180.97     | 181.13     |   1.0 | 73.65
Other   |            | 0.3808     |            |       |  0.15

Nlocal:    250.0 ave 250.0 max 250.0 min
Histogram: 8 0 0 0 0 0 0 0 0 0
Nghost:    1479.0 ave 1479.0 max 1479.0 min
Histogram: 8 0 0 0 0 0 0 0 0 0
Neighs:    8000.0 ave 8000.0 max 8000.0 min
Histogram: 8 0 0 0 0 0 0 0 0 0
FullNghs:  16000.0 ave 16000.0 max 16000.0 min
Histogram: 8 0 0 0 0 0 0 0 0 0

Total # of neighbors = 128000
Ave neighs/atom = 64.0
Neighbor list builds = 0
Dangerous builds = 0

Please see the log.cite file for references relevant to this simulation

Total wall time: 0:04:05
