LAMMPS (30 Jun 2020)
Lattice spacing in x,y,z = 2.8665 2.8665 2.8665
Created orthogonal box = (0.0 0.0 0.0) to (28.665 28.665 28.665)
  2 by 2 by 2 MPI processor grid
Created 2000 atoms
  create_atoms CPU = 0.001 seconds
Setting atom values ...
  2000 settings made for spin
Neighbor list info ...
  update every 10 steps, delay 20 steps, check yes
  max neighbors/atom: 2000, page size: 100000
  master list distance cutoff = 5.7733670002446
  ghost atom cutoff = 5.7733670002446
  binsize = 2.8866835001223, bins = 10.0 10.0 10.0
  2 neighbor lists, perpetual/occasional/extra = 2 0 0
  (1) pair eam/alloy, perpetual, half/full from (2)
      attributes: half, newton on
      pair build: halffull/newton
      stencil: none
      bin: none
  (2) pair spin/exchange, perpetual
      attributes: full, newton on
      pair build: full/bin/atomonly
      stencil: full/bin/3d
      bin: standard
Setting up Verlet run ...
  Unit style    : metal
  Current step  : 0
  Time step     : 0.0001
Per MPI rank memory allocation (min/avg/max) = 7.827 | 7.827 | 7.827 Mbytes
Step Time v_magnorm v_tmag Temp v_emag KinEng PotEng Press TotEng 
       0            0            1           -0    250.00895    222.33076    64.600071   -8337.6694     2929.572   -8273.0693 
    5000          0.5   0.35154877   -3100.7455    250.00895    10.743513    64.600071   -8549.2566     2929.572   -8484.6566 
   10000            1  0.079644824    418.53409    250.00895    -23.49646    64.600071   -8583.4966     2929.572   -8518.8965 
   15000          1.5  0.021160535    287.75975    250.00895   -28.441128    64.600071   -8588.4413     2929.572   -8523.8412 
   20000            2  0.012455096    283.18004    250.00895   -29.039247    64.600071   -8589.0394     2929.572   -8524.4393 
   25000          2.5 0.0071898525    253.15901    250.00895   -30.429583    64.600071   -8590.4297     2929.572   -8525.8297 
   30000            3   0.01632275    254.50104    250.00895   -30.696587    64.600071   -8590.6967     2929.572   -8526.0967 
   35000          3.5 0.0056514788    267.59579    250.00895   -30.171945    64.600071   -8590.1721     2929.572    -8525.572 
   40000            4  0.010357585    266.70933    250.00895   -30.054323    64.600071   -8590.0545     2929.572   -8525.4544 
   45000          4.5 0.0046520738    256.37715    250.00895   -30.842738    64.600071   -8590.8429     2929.572   -8526.2428 
   50000            5 0.0031842137    239.96863    250.00895   -32.119232    64.600071   -8592.1194     2929.572   -8527.5193 
   55000          5.5  0.010852217    262.76228    250.00895   -30.412535    64.600071   -8590.4127     2929.572   -8525.8126 
   60000            6  0.011847313    262.24324    250.00895    -30.53564    64.600071   -8590.5358     2929.572   -8525.9357 
   65000          6.5 0.0079720232    219.30312    250.00895   -33.566209    64.600071   -8593.5663     2929.572   -8528.9663 
   70000            7  0.007439466    231.88154    250.00895   -33.340111    64.600071   -8593.3402     2929.572   -8528.7402 
   75000          7.5 0.0091314762    249.76733    250.00895   -32.025708    64.600071   -8592.0258     2929.572   -8527.4258 
   80000            8  0.011892601    231.27914    250.00895   -31.984625    64.600071   -8591.9848     2929.572   -8527.3847 
   85000          8.5  0.014946429    257.89734    250.00895   -31.448371    64.600071   -8591.4485     2929.572   -8526.8484 
   90000            9  0.010163282    259.68512    250.00895   -30.328765    64.600071   -8590.3289     2929.572   -8525.7288 
   95000          9.5  0.012835451    258.30931    250.00895   -32.046547    64.600071   -8592.0467     2929.572   -8527.4466 
  100000           10  0.010667525    246.96315    250.00895   -31.338518    64.600071   -8591.3387     2929.572   -8526.7386 
Loop time of 259.154 on 8 procs for 100000 steps with 2000 atoms

Performance: 3.334 ns/day, 7.199 hours/ns, 385.870 timesteps/s
100.0% CPU use with 8 MPI tasks x no OpenMP threads

MPI task timing breakdown:
Section |  min time  |  avg time  |  max time  |%varavg| %total
---------------------------------------------------------------
Pair    | 54.71      | 55.934     | 56.769     |   9.6 | 21.58
Neigh   | 0          | 0          | 0          |   0.0 |  0.00
Comm    | 8.4214     | 9.0441     | 9.8157     |  14.6 |  3.49
Output  | 0.43772    | 0.46257    | 0.48935    |   2.7 |  0.18
Modify  | 192.57     | 193.37     | 193.95     |   3.1 | 74.62
Other   |            | 0.3447     |            |       |  0.13

Nlocal:    250.0 ave 250.0 max 250.0 min
Histogram: 8 0 0 0 0 0 0 0 0 0
Nghost:    1479.0 ave 1479.0 max 1479.0 min
Histogram: 8 0 0 0 0 0 0 0 0 0
Neighs:    8000.0 ave 8000.0 max 8000.0 min
Histogram: 8 0 0 0 0 0 0 0 0 0
FullNghs:  16000.0 ave 16000.0 max 16000.0 min
Histogram: 8 0 0 0 0 0 0 0 0 0

Total # of neighbors = 128000
Ave neighs/atom = 64.0
Neighbor list builds = 0
Dangerous builds = 0

Please see the log.cite file for references relevant to this simulation

Total wall time: 0:04:19
