LAMMPS (30 Jun 2020)
Lattice spacing in x,y,z = 2.8665 2.8665 2.8665
Created orthogonal box = (0.0 0.0 0.0) to (28.665 28.665 28.665)
  2 by 2 by 2 MPI processor grid
Created 2000 atoms
  create_atoms CPU = 0.001 seconds
Setting atom values ...
  2000 settings made for spin
Neighbor list info ...
  update every 10 steps, delay 20 steps, check yes
  max neighbors/atom: 2000, page size: 100000
  master list distance cutoff = 5.7733670002446
  ghost atom cutoff = 5.7733670002446
  binsize = 2.8866835001223, bins = 10.0 10.0 10.0
  2 neighbor lists, perpetual/occasional/extra = 2 0 0
  (1) pair eam/alloy, perpetual, half/full from (2)
      attributes: half, newton on
      pair build: halffull/newton
      stencil: none
      bin: none
  (2) pair spin/exchange, perpetual
      attributes: full, newton on
      pair build: full/bin/atomonly
      stencil: full/bin/3d
      bin: standard
Setting up Verlet run ...
  Unit style    : metal
  Current step  : 0
  Time step     : 0.0001
Per MPI rank memory allocation (min/avg/max) = 7.827 | 7.827 | 7.827 Mbytes
Step Time v_magnorm v_tmag Temp v_emag KinEng PotEng Press TotEng 
       0            0            1           -0    350.01253    222.33076    90.440099   -8337.6694    4101.3794   -8247.2293 
    5000          0.5   0.30391724   -4173.6634    350.01253    6.9122835    90.440099   -8553.0879    4101.3794   -8462.6478 
   10000            1  0.051889103    423.09697    350.01253   -21.843754    90.440099   -8581.8439    4101.3794   -8491.4038 
   15000          1.5 0.0070295465    374.94814    350.01253   -23.171445    90.440099   -8583.1716    4101.3794   -8492.7315 
   20000            2 0.0093476242    342.21729    350.01253   -24.921971    90.440099   -8584.9221    4101.3794    -8494.482 
   25000          2.5  0.011028998    318.23624    350.01253   -25.453726    90.440099   -8585.4539    4101.3794   -8495.0138 
   30000            3 0.0060834839    373.62317    350.01253   -24.537662    90.440099   -8584.5378    4101.3794   -8494.0977 
   35000          3.5  0.003419921    331.18666    350.01253   -24.990298    90.440099   -8584.9904    4101.3794   -8494.5503 
   40000            4  0.010983302    359.16362    350.01253   -24.417846    90.440099    -8584.418    4101.3794   -8493.9779 
   45000          4.5 0.0086911081    337.06618    350.01253   -25.548986    90.440099   -8585.5491    4101.3794    -8495.109 
   50000            5  0.012260611    336.19957    350.01253   -24.895732    90.440099   -8584.8959    4101.3794   -8494.4558 
   55000          5.5  0.012322213    336.66318    350.01253   -25.052508    90.440099   -8585.0526    4101.3794   -8494.6125 
   60000            6  0.014467257    337.23821    350.01253   -24.687953    90.440099   -8584.6881    4101.3794    -8494.248 
   65000          6.5 0.0085932605     366.5417    350.01253   -23.691747    90.440099   -8583.6919    4101.3794   -8493.2518 
   70000            7 0.0056288635     341.3029    350.01253   -24.780918    90.440099   -8584.7811    4101.3794    -8494.341 
   75000          7.5 0.0094046196    310.06841    350.01253   -25.693449    90.440099   -8585.6936    4101.3794   -8495.2535 
   80000            8  0.012649142    363.28769    350.01253   -24.607753    90.440099   -8584.6079    4101.3794   -8494.1678 
   85000          8.5 0.0076830293    366.63297    350.01253   -24.043501    90.440099   -8584.0436    4101.3794   -8493.6035 
   90000            9  0.014212199     326.4955    350.01253    -25.21834    90.440099   -8585.2185    4101.3794   -8494.7784 
   95000          9.5 0.0082982806    367.40651    350.01253   -24.363776    90.440099   -8584.3639    4101.3794   -8493.9238 
  100000           10  0.011205971    341.26746    350.01253   -24.969487    90.440099   -8584.9696    4101.3794   -8494.5295 
Loop time of 248.819 on 8 procs for 100000 steps with 2000 atoms

Performance: 3.472 ns/day, 6.912 hours/ns, 401.898 timesteps/s
100.0% CPU use with 8 MPI tasks x no OpenMP threads

MPI task timing breakdown:
Section |  min time  |  avg time  |  max time  |%varavg| %total
---------------------------------------------------------------
Pair    | 54.906     | 55.833     | 56.59      |   7.0 | 22.44
Neigh   | 0          | 0          | 0          |   0.0 |  0.00
Comm    | 7.5315     | 8.12       | 8.9216     |  16.0 |  3.26
Output  | 0.42211    | 0.45291    | 0.48401    |   2.9 |  0.18
Modify  | 183.63     | 184.08     | 184.54     |   2.4 | 73.98
Other   |            | 0.3379     |            |       |  0.14

Nlocal:    250.0 ave 250.0 max 250.0 min
Histogram: 8 0 0 0 0 0 0 0 0 0
Nghost:    1479.0 ave 1479.0 max 1479.0 min
Histogram: 8 0 0 0 0 0 0 0 0 0
Neighs:    8000.0 ave 8000.0 max 8000.0 min
Histogram: 8 0 0 0 0 0 0 0 0 0
FullNghs:  16000.0 ave 16000.0 max 16000.0 min
Histogram: 8 0 0 0 0 0 0 0 0 0

Total # of neighbors = 128000
Ave neighs/atom = 64.0
Neighbor list builds = 0
Dangerous builds = 0

Please see the log.cite file for references relevant to this simulation

Total wall time: 0:04:08
