LAMMPS (30 Jun 2020)
Lattice spacing in x,y,z = 2.8665 2.8665 2.8665
Created orthogonal box = (0.0 0.0 0.0) to (28.665 28.665 28.665)
  2 by 2 by 2 MPI processor grid
Created 2000 atoms
  create_atoms CPU = 0.001 seconds
Setting atom values ...
  2000 settings made for spin
Neighbor list info ...
  update every 10 steps, delay 20 steps, check yes
  max neighbors/atom: 2000, page size: 100000
  master list distance cutoff = 5.7733670002446
  ghost atom cutoff = 5.7733670002446
  binsize = 2.8866835001223, bins = 10.0 10.0 10.0
  2 neighbor lists, perpetual/occasional/extra = 2 0 0
  (1) pair eam/alloy, perpetual, half/full from (2)
      attributes: half, newton on
      pair build: halffull/newton
      stencil: none
      bin: none
  (2) pair spin/exchange, perpetual
      attributes: full, newton on
      pair build: full/bin/atomonly
      stencil: full/bin/3d
      bin: standard
Setting up Verlet run ...
  Unit style    : metal
  Current step  : 0
  Time step     : 0.0001
Per MPI rank memory allocation (min/avg/max) = 7.827 | 7.827 | 7.827 Mbytes
Step Time v_magnorm v_tmag Temp v_emag KinEng PotEng Press TotEng 
       0            0            1           -0    300.01074    222.33076    77.520085   -8337.6694    3515.4757   -8260.1493 
    5000          0.5   0.33515897   -3019.6932    300.01074    10.670819    77.520085   -8549.3293    3515.4757   -8471.8092 
   10000            1  0.072129077    457.17523    300.01074   -21.693612    77.520085   -8581.6938    3515.4757   -8504.1737 
   15000          1.5 0.0085702647    322.93769    300.01074   -26.053608    77.520085   -8586.0537    3515.4757   -8508.5337 
   20000            2 0.0072583183    306.86202    300.01074   -27.070121    77.520085   -8587.0703    3515.4757   -8509.5502 
   25000          2.5 0.0079024374    286.06812    300.01074   -27.550641    77.520085   -8587.5508    3515.4757   -8510.0307 
   30000            3  0.019907151    312.11794    300.01074   -26.962069    77.520085   -8586.9622    3515.4757   -8509.4421 
   35000          3.5  0.013872305    283.65235    300.01074   -27.842023    77.520085   -8587.8422    3515.4757   -8510.3221 
   40000            4  0.016167461    280.51188    300.01074   -27.816904    77.520085    -8587.817    3515.4757    -8510.297 
   45000          4.5  0.017148636    298.12629    300.01074   -28.074756    77.520085   -8588.0749    3515.4757   -8510.5548 
   50000            5 0.0027154631    303.21209    300.01074    -26.43388    77.520085    -8586.434    3515.4757   -8508.9139 
   55000          5.5 0.0085085562    311.89845    300.01074   -26.727094    77.520085   -8586.7272    3515.4757   -8509.2071 
   60000            6   0.01177765    277.63016    300.01074   -27.581002    77.520085   -8587.5811    3515.4757   -8510.0611 
   65000          6.5 0.0091496073    296.03793    300.01074   -27.293515    77.520085   -8587.2937    3515.4757   -8509.7736 
   70000            7  0.012938559    307.50047    300.01074   -26.805728    77.520085   -8586.8059    3515.4757   -8509.2858 
   75000          7.5 0.0098730901    294.70119    300.01074   -28.213461    77.520085   -8588.2136    3515.4757   -8510.6935 
   80000            8 0.0041071479    295.53156    300.01074    -27.82613    77.520085   -8587.8263    3515.4757   -8510.3062 
   85000          8.5  0.010208945    301.74035    300.01074   -27.493791    77.520085   -8587.4939    3515.4757   -8509.9738 
   90000            9 0.0083883302    319.91541    300.01074   -26.905389    77.520085   -8586.9055    3515.4757   -8509.3854 
   95000          9.5 0.0029458824    294.22376    300.01074   -27.205888    77.520085    -8587.206    3515.4757   -8509.6859 
  100000           10 0.0033861349      318.235    300.01074   -26.963475    77.520085   -8586.9636    3515.4757   -8509.4435 
Loop time of 247.855 on 8 procs for 100000 steps with 2000 atoms

Performance: 3.486 ns/day, 6.885 hours/ns, 403.461 timesteps/s
100.0% CPU use with 8 MPI tasks x no OpenMP threads

MPI task timing breakdown:
Section |  min time  |  avg time  |  max time  |%varavg| %total
---------------------------------------------------------------
Pair    | 55.172     | 55.839     | 56.257     |   4.6 | 22.53
Neigh   | 0          | 0          | 0          |   0.0 |  0.00
Comm    | 7.9106     | 8.6412     | 10.078     |  25.5 |  3.49
Output  | 0.42046    | 0.45127    | 0.48727    |   3.1 |  0.18
Modify  | 181.73     | 182.58     | 183.17     |   3.7 | 73.66
Other   |            | 0.3431     |            |       |  0.14

Nlocal:    250.0 ave 250.0 max 250.0 min
Histogram: 8 0 0 0 0 0 0 0 0 0
Nghost:    1479.0 ave 1479.0 max 1479.0 min
Histogram: 8 0 0 0 0 0 0 0 0 0
Neighs:    8000.0 ave 8000.0 max 8000.0 min
Histogram: 8 0 0 0 0 0 0 0 0 0
FullNghs:  16000.0 ave 16000.0 max 16000.0 min
Histogram: 8 0 0 0 0 0 0 0 0 0

Total # of neighbors = 128000
Ave neighs/atom = 64.0
Neighbor list builds = 0
Dangerous builds = 0

Please see the log.cite file for references relevant to this simulation

Total wall time: 0:04:08
