LAMMPS (30 Jun 2020)
Lattice spacing in x,y,z = 2.8665 2.8665 2.8665
Created orthogonal box = (0.0 0.0 0.0) to (28.665 28.665 28.665)
  2 by 2 by 2 MPI processor grid
Created 2000 atoms
  create_atoms CPU = 0.001 seconds
Setting atom values ...
  2000 settings made for spin
Neighbor list info ...
  update every 10 steps, delay 20 steps, check yes
  max neighbors/atom: 2000, page size: 100000
  master list distance cutoff = 5.7733670002446
  ghost atom cutoff = 5.7733670002446
  binsize = 2.8866835001223, bins = 10.0 10.0 10.0
  2 neighbor lists, perpetual/occasional/extra = 2 0 0
  (1) pair eam/alloy, perpetual, half/full from (2)
      attributes: half, newton on
      pair build: halffull/newton
      stencil: none
      bin: none
  (2) pair spin/exchange, perpetual
      attributes: full, newton on
      pair build: full/bin/atomonly
      stencil: full/bin/3d
      bin: standard
Setting up Verlet run ...
  Unit style    : metal
  Current step  : 0
  Time step     : 0.0001
Per MPI rank memory allocation (min/avg/max) = 7.827 | 7.827 | 7.827 Mbytes
Step Time v_magnorm v_tmag Temp v_emag KinEng PotEng Press TotEng 
       0            0            1           -0    450.01612    222.33076    116.28013   -8337.6694    5273.1868   -8221.3893 
    5000          0.5   0.24061836    18116.672    450.01612   -1.2100867    116.28013   -8561.2102    5273.1868   -8444.9301 
   10000            1  0.036499252    475.63785    450.01612   -19.573984    116.28013   -8579.5741    5273.1868    -8463.294 
   15000          1.5  0.012210139    446.38711    450.01612   -21.237804    116.28013   -8581.2379    5273.1868   -8464.9578 
   20000            2  0.017911287     484.0439    450.01612   -19.074894    116.28013    -8579.075    5273.1868   -8462.7949 
   25000          2.5  0.011596878    452.79343    450.01612   -19.766434    116.28013   -8579.7666    5273.1868   -8463.4864 
   30000            3  0.012901566     445.6125    450.01612   -20.474303    116.28013   -8580.4744    5273.1868   -8464.1943 
   35000          3.5  0.007749323    476.57138    450.01612   -20.349948    116.28013   -8580.3501    5273.1868     -8464.07 
   40000            4  0.017387222     459.9976    450.01612   -20.300525    116.28013   -8580.3007    5273.1868   -8464.0205 
   45000          4.5   0.01967301    487.99327    450.01612   -19.485473    116.28013   -8579.4856    5273.1868   -8463.2055 
   50000            5 0.0072770724    463.58843    450.01612   -20.422704    116.28013   -8580.4228    5273.1868   -8464.1427 
   55000          5.5 0.0043767254    413.97842    450.01612    -21.15337    116.28013   -8581.1535    5273.1868   -8464.8734 
   60000            6 0.0088662759    458.16729    450.01612   -20.700161    116.28013   -8580.7003    5273.1868   -8464.4202 
   65000          6.5  0.010160311    455.87297    450.01612    -20.57557    116.28013   -8580.5757    5273.1868   -8464.2956 
   70000            7  0.017704926     462.5486    450.01612   -19.622577    116.28013   -8579.6227    5273.1868   -8463.3426 
   75000          7.5 0.0091210175    448.98226    450.01612   -20.669504    116.28013   -8580.6696    5273.1868   -8464.3895 
   80000            8   0.01365649     435.2118    450.01612   -20.890372    116.28013   -8580.8905    5273.1868   -8464.6104 
   85000          8.5  0.014914186    477.58368    450.01612   -19.837743    116.28013   -8579.8379    5273.1868   -8463.5578 
   90000            9 0.0054754085    461.32923    450.01612   -20.264098    116.28013   -8580.2642    5273.1868   -8463.9841 
   95000          9.5  0.026566909    455.46484    450.01612   -20.006083    116.28013   -8580.0062    5273.1868   -8463.7261 
  100000           10  0.012483627    460.87786    450.01612     -20.3729    116.28013    -8580.373    5273.1868   -8464.0929 
Loop time of 248.997 on 8 procs for 100000 steps with 2000 atoms

Performance: 3.470 ns/day, 6.917 hours/ns, 401.612 timesteps/s
100.0% CPU use with 8 MPI tasks x no OpenMP threads

MPI task timing breakdown:
Section |  min time  |  avg time  |  max time  |%varavg| %total
---------------------------------------------------------------
Pair    | 54.86      | 55.931     | 56.756     |   8.8 | 22.46
Neigh   | 0          | 0          | 0          |   0.0 |  0.00
Comm    | 7.9029     | 8.1852     | 8.7209     |  10.1 |  3.29
Output  | 0.41877    | 0.44871    | 0.47714    |   3.0 |  0.18
Modify  | 183.31     | 184.06     | 184.8      |   3.7 | 73.92
Other   |            | 0.3703     |            |       |  0.15

Nlocal:    250.0 ave 250.0 max 250.0 min
Histogram: 8 0 0 0 0 0 0 0 0 0
Nghost:    1479.0 ave 1479.0 max 1479.0 min
Histogram: 8 0 0 0 0 0 0 0 0 0
Neighs:    8000.0 ave 8000.0 max 8000.0 min
Histogram: 8 0 0 0 0 0 0 0 0 0
FullNghs:  16000.0 ave 16000.0 max 16000.0 min
Histogram: 8 0 0 0 0 0 0 0 0 0

Total # of neighbors = 128000
Ave neighs/atom = 64.0
Neighbor list builds = 0
Dangerous builds = 0

Please see the log.cite file for references relevant to this simulation

Total wall time: 0:04:09
