LAMMPS (30 Jun 2020)
Lattice spacing in x,y,z = 2.8665 2.8665 2.8665
Created orthogonal box = (0.0 0.0 0.0) to (28.665 28.665 28.665)
  2 by 2 by 2 MPI processor grid
Created 2000 atoms
  create_atoms CPU = 0.001 seconds
Setting atom values ...
  2000 settings made for spin
Neighbor list info ...
  update every 10 steps, delay 20 steps, check yes
  max neighbors/atom: 2000, page size: 100000
  master list distance cutoff = 5.7733670002446
  ghost atom cutoff = 5.7733670002446
  binsize = 2.8866835001223, bins = 10.0 10.0 10.0
  2 neighbor lists, perpetual/occasional/extra = 2 0 0
  (1) pair eam/alloy, perpetual, half/full from (2)
      attributes: half, newton on
      pair build: halffull/newton
      stencil: none
      bin: none
  (2) pair spin/exchange, perpetual
      attributes: full, newton on
      pair build: full/bin/atomonly
      stencil: full/bin/3d
      bin: standard
Setting up Verlet run ...
  Unit style    : metal
  Current step  : 0
  Time step     : 0.0001
Per MPI rank memory allocation (min/avg/max) = 7.827 | 7.827 | 7.827 Mbytes
Step Time v_magnorm v_tmag Temp v_emag KinEng PotEng Press TotEng 
       0            0            1           -0    400.01433    222.33076    103.36011   -8337.6694    4687.2831   -8234.3093 
    5000          0.5   0.26955543   -24001.694    400.01433    1.0357909    103.36011   -8558.9643    4687.2831   -8455.6042 
   10000            1  0.052109898    477.74282    400.01433   -20.012821    103.36011    -8580.013    4687.2831   -8476.6528 
   15000          1.5  0.020084382    452.84562    400.01433   -20.630491    103.36011   -8580.6306    4687.2831   -8477.2705 
   20000            2  0.021209999    444.39144    400.01433   -21.148633    103.36011   -8581.1488    4687.2831   -8477.7887 
   25000          2.5  0.014157544    429.84924    400.01433   -21.802847    103.36011    -8581.803    4687.2831   -8478.4429 
   30000            3 0.0035685738    404.61615    400.01433   -22.178311    103.36011   -8582.1784    4687.2831   -8478.8183 
   35000          3.5  0.017462673    423.07544    400.01433   -21.167838    103.36011    -8581.168    4687.2831   -8477.8079 
   40000            4 0.0091831145    408.60862    400.01433   -22.443229    103.36011   -8582.4434    4687.2831   -8479.0833 
   45000          4.5 0.00093799854    434.38274    400.01433   -20.928922    103.36011   -8580.9291    4687.2831   -8477.5689 
   50000            5 0.0031297501    426.49698    400.01433   -21.546133    103.36011   -8581.5463    4687.2831   -8478.1862 
   55000          5.5  0.012558967    404.71694    400.01433   -21.704968    103.36011   -8581.7051    4687.2831    -8478.345 
   60000            6 0.0026746172    419.84177    400.01433   -21.453573    103.36011   -8581.4537    4687.2831   -8478.0936 
   65000          6.5  0.011652495    417.37631    400.01433   -22.098962    103.36011   -8582.0991    4687.2831    -8478.739 
   70000            7  0.006743379     381.3872    400.01433   -23.117719    103.36011   -8583.1179    4687.2831   -8479.7577 
   75000          7.5  0.012748286    405.43916    400.01433   -22.331444    103.36011   -8582.3316    4687.2831   -8478.9715 
   80000            8  0.018795332    390.62375    400.01433   -22.539075    103.36011   -8582.5392    4687.2831   -8479.1791 
   85000          8.5 0.0077741148    403.92754    400.01433   -22.306515    103.36011   -8582.3067    4687.2831   -8478.9465 
   90000            9  0.018501391    438.38277    400.01433   -21.306002    103.36011   -8581.3061    4687.2831    -8477.946 
   95000          9.5 0.0054630467    444.12847    400.01433   -20.702482    103.36011   -8580.7026    4687.2831   -8477.3425 
  100000           10  0.024559527    444.26448    400.01433   -20.877061    103.36011   -8580.8772    4687.2831   -8477.5171 
Loop time of 263.614 on 8 procs for 100000 steps with 2000 atoms

Performance: 3.278 ns/day, 7.323 hours/ns, 379.342 timesteps/s
100.0% CPU use with 8 MPI tasks x no OpenMP threads

MPI task timing breakdown:
Section |  min time  |  avg time  |  max time  |%varavg| %total
---------------------------------------------------------------
Pair    | 55.053     | 56.031     | 56.894     |   7.6 | 21.25
Neigh   | 0          | 0          | 0          |   0.0 |  0.00
Comm    | 8.7114     | 9.2027     | 10.144     |  16.1 |  3.49
Output  | 0.41755    | 0.441      | 0.46484    |   2.4 |  0.17
Modify  | 197.15     | 197.58     | 198.11     |   2.5 | 74.95
Other   |            | 0.3643     |            |       |  0.14

Nlocal:    250.0 ave 250.0 max 250.0 min
Histogram: 8 0 0 0 0 0 0 0 0 0
Nghost:    1479.0 ave 1479.0 max 1479.0 min
Histogram: 8 0 0 0 0 0 0 0 0 0
Neighs:    8000.0 ave 8000.0 max 8000.0 min
Histogram: 8 0 0 0 0 0 0 0 0 0
FullNghs:  16000.0 ave 16000.0 max 16000.0 min
Histogram: 8 0 0 0 0 0 0 0 0 0

Total # of neighbors = 128000
Ave neighs/atom = 64.0
Neighbor list builds = 0
Dangerous builds = 0

Please see the log.cite file for references relevant to this simulation

Total wall time: 0:04:23
