LAMMPS (30 Jun 2020)
Lattice spacing in x,y,z = 2.8665 2.8665 2.8665
Created orthogonal box = (0.0 0.0 0.0) to (28.665 28.665 28.665)
  2 by 2 by 2 MPI processor grid
Created 2000 atoms
  create_atoms CPU = 0.001 seconds
Setting atom values ...
  2000 settings made for spin
Neighbor list info ...
  update every 10 steps, delay 20 steps, check yes
  max neighbors/atom: 2000, page size: 100000
  master list distance cutoff = 5.7733670002446
  ghost atom cutoff = 5.7733670002446
  binsize = 2.8866835001223, bins = 10.0 10.0 10.0
  2 neighbor lists, perpetual/occasional/extra = 2 0 0
  (1) pair eam/alloy, perpetual, half/full from (2)
      attributes: half, newton on
      pair build: halffull/newton
      stencil: none
      bin: none
  (2) pair spin/exchange, perpetual
      attributes: full, newton on
      pair build: full/bin/atomonly
      stencil: full/bin/3d
      bin: standard
Setting up Verlet run ...
  Unit style    : metal
  Current step  : 0
  Time step     : 0.0001
Per MPI rank memory allocation (min/avg/max) = 7.827 | 7.827 | 7.827 Mbytes
Step Time v_magnorm v_tmag Temp v_emag KinEng PotEng Press TotEng 
       0            0            1           -0    500.01791    222.33076    129.20014   -8337.6694    5859.0905   -8208.4692 
    5000          0.5    0.2209959    8211.3657    500.01791   -2.4434648    129.20014   -8562.4436    5859.0905   -8433.2435 
   10000            1  0.036182731    547.48892    500.01791   -17.817097    129.20014   -8577.8172    5859.0905   -8448.6171 
   15000          1.5  0.012366201    497.67478    500.01791   -18.710056    129.20014   -8578.7102    5859.0905   -8449.5101 
   20000            2  0.011000454    477.80421    500.01791    -19.61542    129.20014   -8579.6156    5859.0905   -8450.4154 
   25000          2.5  0.010433639    456.86222    500.01791   -19.909347    129.20014   -8579.9095    5859.0905   -8450.7093 
   30000            3  0.021560494    492.72138    500.01791   -19.317655    129.20014   -8579.3178    5859.0905   -8450.1177 
   35000          3.5  0.016375197    500.46017    500.01791   -19.379335    129.20014   -8579.3795    5859.0905   -8450.1793 
   40000            4  0.009474275    473.80197    500.01791   -20.289514    129.20014   -8580.2897    5859.0905   -8451.0895 
   45000          4.5  0.012036127    493.35551    500.01791    -18.83766    129.20014   -8578.8378    5859.0905   -8449.6377 
   50000            5  0.011695015    552.02535    500.01791   -18.439439    129.20014   -8578.4396    5859.0905   -8449.2394 
   55000          5.5  0.005356834    508.78678    500.01791   -18.583806    129.20014   -8578.5839    5859.0905   -8449.3838 
   60000            6  0.030881194    511.50401    500.01791   -19.194968    129.20014   -8579.1951    5859.0905    -8449.995 
   65000          6.5  0.013885347    460.13504    500.01791   -19.550256    129.20014   -8579.5504    5859.0905   -8450.3503 
   70000            7   0.01454953    518.21111    500.01791   -18.584236    129.20014   -8578.5844    5859.0905   -8449.3842 
   75000          7.5   0.01935762    490.12051    500.01791   -19.340205    129.20014   -8579.3403    5859.0905   -8450.1402 
   80000            8  0.013328421    494.25671    500.01791   -18.768458    129.20014   -8578.7686    5859.0905   -8449.5685 
   85000          8.5 0.0094319704    518.41788    500.01791   -18.060526    129.20014   -8578.0607    5859.0905   -8448.8605 
   90000            9   0.01025459     491.9348    500.01791   -19.423033    129.20014   -8579.4232    5859.0905    -8450.223 
   95000          9.5  0.010692065    521.39771    500.01791   -18.549137    129.20014   -8578.5493    5859.0905   -8449.3491 
  100000           10  0.025451728    520.78674    500.01791   -19.094796    129.20014   -8579.0949    5859.0905   -8449.8948 
Loop time of 253.911 on 8 procs for 100000 steps with 2000 atoms

Performance: 3.403 ns/day, 7.053 hours/ns, 393.838 timesteps/s
100.0% CPU use with 8 MPI tasks x no OpenMP threads

MPI task timing breakdown:
Section |  min time  |  avg time  |  max time  |%varavg| %total
---------------------------------------------------------------
Pair    | 55.094     | 56.003     | 57.034     |   7.5 | 22.06
Neigh   | 0          | 0          | 0          |   0.0 |  0.00
Comm    | 8.1213     | 8.7423     | 9.3658     |  14.3 |  3.44
Output  | 0.41308    | 0.43882    | 0.4671     |   2.7 |  0.17
Modify  | 187.85     | 188.36     | 188.92     |   3.1 | 74.19
Other   |            | 0.3629     |            |       |  0.14

Nlocal:    250.0 ave 250.0 max 250.0 min
Histogram: 8 0 0 0 0 0 0 0 0 0
Nghost:    1479.0 ave 1479.0 max 1479.0 min
Histogram: 8 0 0 0 0 0 0 0 0 0
Neighs:    8000.0 ave 8000.0 max 8000.0 min
Histogram: 8 0 0 0 0 0 0 0 0 0
FullNghs:  16000.0 ave 16000.0 max 16000.0 min
Histogram: 8 0 0 0 0 0 0 0 0 0

Total # of neighbors = 128000
Ave neighs/atom = 64.0
Neighbor list builds = 0
Dangerous builds = 0

Please see the log.cite file for references relevant to this simulation

Total wall time: 0:04:13
