LAMMPS (30 Jun 2020)
Lattice spacing in x,y,z = 2.8665 2.8665 2.8665
Created orthogonal box = (0.0 0.0 0.0) to (28.665 28.665 28.665)
  2 by 2 by 2 MPI processor grid
Created 2000 atoms
  create_atoms CPU = 0.001 seconds
Setting atom values ...
  2000 settings made for spin
Neighbor list info ...
  update every 10 steps, delay 20 steps, check yes
  max neighbors/atom: 2000, page size: 100000
  master list distance cutoff = 5.7733670002446
  ghost atom cutoff = 5.7733670002446
  binsize = 2.8866835001223, bins = 10.0 10.0 10.0
  2 neighbor lists, perpetual/occasional/extra = 2 0 0
  (1) pair eam/alloy, perpetual, half/full from (2)
      attributes: half, newton on
      pair build: halffull/newton
      stencil: none
      bin: none
  (2) pair spin/exchange, perpetual
      attributes: full, newton on
      pair build: full/bin/atomonly
      stencil: full/bin/3d
      bin: standard
Setting up Verlet run ...
  Unit style    : metal
  Current step  : 0
  Time step     : 0.0001
Per MPI rank memory allocation (min/avg/max) = 7.827 | 7.827 | 7.827 Mbytes
Step Time v_magnorm v_tmag Temp v_emag KinEng PotEng Press TotEng 
       0            0            1           -0     550.0197    222.33076    142.12016   -8337.6694    6444.9942   -8195.5492 
    5000          0.5   0.20668716    4972.2971     550.0197     -3.88066    142.12016   -8563.8808    6444.9942   -8421.7606 
   10000            1  0.028938809     621.8118     550.0197   -16.461369    142.12016   -8576.4615    6444.9942   -8434.3414 
   15000          1.5  0.014814192    560.33293     550.0197   -17.329179    142.12016   -8577.3293    6444.9942   -8435.2092 
   20000            2 0.0039625795    526.15626     550.0197   -18.730576    142.12016   -8578.7307    6444.9942   -8436.6106 
   25000          2.5  0.014954491    600.07792     550.0197    -17.29216    142.12016   -8577.2923    6444.9942   -8435.1721 
   30000            3  0.014084517     616.4754     550.0197   -16.416008    142.12016   -8576.4161    6444.9942    -8434.296 
   35000          3.5 0.0070174218    533.49997     550.0197   -18.910048    142.12016   -8578.9102    6444.9942     -8436.79 
   40000            4  0.012423764    548.65574     550.0197   -17.526311    142.12016   -8577.5264    6444.9942   -8435.4063 
   45000          4.5  0.020823896    532.69863     550.0197   -17.737338    142.12016   -8577.7375    6444.9942   -8435.6173 
   50000            5 0.0086077352    595.58531     550.0197   -16.956412    142.12016   -8576.9566    6444.9942   -8434.8364 
   55000          5.5  0.013701089    553.39883     550.0197   -17.881222    142.12016   -8577.8814    6444.9942   -8435.7612 
   60000            6  0.009177909    640.84145     550.0197   -16.524309    142.12016   -8576.5244    6444.9942   -8434.4043 
   65000          6.5  0.016464187    597.80486     550.0197   -17.125356    142.12016   -8577.1255    6444.9942   -8435.0053 
   70000            7 0.0088786178    512.89006     550.0197   -18.393813    142.12016    -8578.394    6444.9942   -8436.2738 
   75000          7.5 0.0094535137    563.44118     550.0197   -17.428433    142.12016   -8577.4286    6444.9942   -8435.3084 
   80000            8  0.018935744    523.40403     550.0197   -18.704965    142.12016   -8578.7051    6444.9942   -8436.5849 
   85000          8.5 0.0057212323    537.79294     550.0197   -18.449489    142.12016   -8578.4496    6444.9942   -8436.3295 
   90000            9  0.015010237    590.65789     550.0197   -16.859409    142.12016   -8576.8595    6444.9942   -8434.7394 
   95000          9.5  0.012417905    586.43936     550.0197   -17.456089    142.12016   -8577.4562    6444.9942   -8435.3361 
  100000           10  0.013033738    510.24049     550.0197   -19.288167    142.12016   -8579.2883    6444.9942   -8437.1681 
Loop time of 229.77 on 8 procs for 100000 steps with 2000 atoms

Performance: 3.760 ns/day, 6.382 hours/ns, 435.219 timesteps/s
100.0% CPU use with 8 MPI tasks x no OpenMP threads

MPI task timing breakdown:
Section |  min time  |  avg time  |  max time  |%varavg| %total
---------------------------------------------------------------
Pair    | 54.639     | 55.74      | 56.849     |   9.6 | 24.26
Neigh   | 0          | 0          | 0          |   0.0 |  0.00
Comm    | 6.7068     | 8.011      | 9.253      |  27.4 |  3.49
Output  | 0.42712    | 0.45768    | 0.49182    |   3.1 |  0.20
Modify  | 164.93     | 165.09     | 165.26     |   0.8 | 71.85
Other   |            | 0.4756     |            |       |  0.21

Nlocal:    250.0 ave 250.0 max 250.0 min
Histogram: 8 0 0 0 0 0 0 0 0 0
Nghost:    1479.0 ave 1479.0 max 1479.0 min
Histogram: 8 0 0 0 0 0 0 0 0 0
Neighs:    8000.0 ave 8000.0 max 8000.0 min
Histogram: 8 0 0 0 0 0 0 0 0 0
FullNghs:  16000.0 ave 16000.0 max 16000.0 min
Histogram: 8 0 0 0 0 0 0 0 0 0

Total # of neighbors = 128000
Ave neighs/atom = 64.0
Neighbor list builds = 0
Dangerous builds = 0

Please see the log.cite file for references relevant to this simulation

Total wall time: 0:03:49
