LAMMPS (30 Jun 2020)
Lattice spacing in x,y,z = 2.8665 2.8665 2.8665
Created orthogonal box = (0.0 0.0 0.0) to (28.665 28.665 28.665)
  2 by 2 by 2 MPI processor grid
Created 2000 atoms
  create_atoms CPU = 0.000 seconds
Setting atom values ...
  2000 settings made for spin
Neighbor list info ...
  update every 10 steps, delay 20 steps, check yes
  max neighbors/atom: 2000, page size: 100000
  master list distance cutoff = 5.7733670002446
  ghost atom cutoff = 5.7733670002446
  binsize = 2.8866835001223, bins = 10.0 10.0 10.0
  2 neighbor lists, perpetual/occasional/extra = 2 0 0
  (1) pair eam/alloy, perpetual, half/full from (2)
      attributes: half, newton on
      pair build: halffull/newton
      stencil: none
      bin: none
  (2) pair spin/exchange, perpetual
      attributes: full, newton on
      pair build: full/bin/atomonly
      stencil: full/bin/3d
      bin: standard
Setting up Verlet run ...
  Unit style    : metal
  Current step  : 0
  Time step     : 0.0001
Per MPI rank memory allocation (min/avg/max) = 7.827 | 7.827 | 7.827 Mbytes
Step Time v_magnorm v_tmag Temp v_emag KinEng PotEng Press TotEng 
       0            0            1           -0    50.001791    222.33076    12.920014   -8337.6694     585.9571   -8324.7494 
    5000          0.5   0.66874496   -887.18243    50.001791    86.340298    12.920014   -8473.6598     585.9571   -8460.7398 
   10000            1   0.19796678    623.58597    50.001791   -28.193139    12.920014   -8588.1933     585.9571   -8575.2733 
   15000          1.5  0.043221083    181.48708    50.001791   -52.297076    12.920014   -8612.2972     585.9571   -8599.3772 
   20000            2  0.010635038    112.66201    50.001791   -66.548504    12.920014   -8626.5486     585.9571   -8613.6286 
   25000          2.5 0.0011591192    79.795991    50.001791   -74.389798    12.920014   -8634.3899     585.9571   -8621.4699 
   30000            3 0.0017258361    59.587872    50.001791   -78.141012    12.920014   -8638.1412     585.9571   -8625.2211 
   35000          3.5 0.0043597705    54.554973    50.001791   -79.406161    12.920014   -8639.4063     585.9571   -8626.4863 
   40000            4 0.0028372764    53.014634    50.001791   -79.773349    12.920014   -8639.7735     585.9571   -8626.8535 
   45000          4.5 0.0067094114    51.739472    50.001791   -79.940057    12.920014   -8639.9402     585.9571   -8627.0202 
   50000            5 0.0042673104     50.22848    50.001791   -80.251246    12.920014   -8640.2514     585.9571   -8627.3314 
   55000          5.5 0.0044506676     52.16918    50.001791    -80.14449    12.920014   -8640.1446     585.9571   -8627.2246 
   60000            6 0.0029796378    49.738413    50.001791   -80.450486    12.920014   -8640.4506     585.9571   -8627.5306 
   65000          6.5 0.0009471755    49.924622    50.001791   -80.576928    12.920014   -8640.5771     585.9571   -8627.6571 
   70000            7 0.0039836934    51.780909    50.001791   -80.317359    12.920014   -8640.3175     585.9571   -8627.3975 
   75000          7.5 0.0048742062    50.900382    50.001791   -80.396733    12.920014   -8640.3969     585.9571   -8627.4769 
   80000            8 0.0024671774    48.695806    50.001791   -80.696481    12.920014   -8640.6966     585.9571   -8627.7766 
   85000          8.5 0.0049710176    49.256211    50.001791    -80.59833    12.920014   -8640.5985     585.9571   -8627.6785 
   90000            9 0.0032102557    51.379212    50.001791   -80.335052    12.920014   -8640.3352     585.9571   -8627.4152 
   95000          9.5 0.0027356798    48.288234    50.001791   -80.359962    12.920014   -8640.3601     585.9571   -8627.4401 
  100000           10 0.0030921159    49.897738    50.001791   -80.495177    12.920014   -8640.4953     585.9571   -8627.5753 
Loop time of 258.697 on 8 procs for 100000 steps with 2000 atoms

Performance: 3.340 ns/day, 7.186 hours/ns, 386.553 timesteps/s
100.0% CPU use with 8 MPI tasks x no OpenMP threads

MPI task timing breakdown:
Section |  min time  |  avg time  |  max time  |%varavg| %total
---------------------------------------------------------------
Pair    | 55.406     | 56.104     | 56.462     |   4.9 | 21.69
Neigh   | 0          | 0          | 0          |   0.0 |  0.00
Comm    | 8.6985     | 9.2728     | 10.169     |  16.1 |  3.58
Output  | 0.52652    | 0.55539    | 0.58344    |   2.6 |  0.21
Modify  | 191.76     | 192.37     | 192.97     |   2.9 | 74.36
Other   |            | 0.3925     |            |       |  0.15

Nlocal:    250.0 ave 250.0 max 250.0 min
Histogram: 8 0 0 0 0 0 0 0 0 0
Nghost:    1479.0 ave 1479.0 max 1479.0 min
Histogram: 8 0 0 0 0 0 0 0 0 0
Neighs:    8000.0 ave 8000.0 max 8000.0 min
Histogram: 8 0 0 0 0 0 0 0 0 0
FullNghs:  16000.0 ave 16000.0 max 16000.0 min
Histogram: 8 0 0 0 0 0 0 0 0 0

Total # of neighbors = 128000
Ave neighs/atom = 64.0
Neighbor list builds = 0
Dangerous builds = 0

Please see the log.cite file for references relevant to this simulation

Total wall time: 0:04:18
