LAMMPS (30 Jun 2020)
Lattice spacing in x,y,z = 2.8665 2.8665 2.8665
Created orthogonal box = (0.0 0.0 0.0) to (28.665 28.665 28.665)
  2 by 2 by 2 MPI processor grid
Created 2000 atoms
  create_atoms CPU = 0.001 seconds
Setting atom values ...
  2000 settings made for spin
Neighbor list info ...
  update every 10 steps, delay 20 steps, check yes
  max neighbors/atom: 2000, page size: 100000
  master list distance cutoff = 5.7733670002446
  ghost atom cutoff = 5.7733670002446
  binsize = 2.8866835001223, bins = 10.0 10.0 10.0
  2 neighbor lists, perpetual/occasional/extra = 2 0 0
  (1) pair eam/alloy, perpetual, half/full from (2)
      attributes: half, newton on
      pair build: halffull/newton
      stencil: none
      bin: none
  (2) pair spin/exchange, perpetual
      attributes: full, newton on
      pair build: full/bin/atomonly
      stencil: full/bin/3d
      bin: standard
Setting up Verlet run ...
  Unit style    : metal
  Current step  : 0
  Time step     : 0.0001
Per MPI rank memory allocation (min/avg/max) = 7.827 | 7.827 | 7.827 Mbytes
Step Time v_magnorm v_tmag Temp v_emag KinEng PotEng Press TotEng 
       0            0            1           -0    600.02149    222.33076    155.04017   -8337.6694    7030.8979   -8182.6292 
    5000          0.5   0.17710041    2616.3844    600.02149   -6.4483531    155.04017   -8566.4485    7030.8979   -8411.4083 
   10000            1  0.019554612    596.41592    600.02149   -16.603315    155.04017   -8576.6035    7030.8979   -8421.5633 
   15000          1.5 0.0051415412    640.17262    600.02149   -15.476893    155.04017    -8575.477    7030.8979   -8420.4369 
   20000            2 0.0083930136    566.12378    600.02149   -17.272012    155.04017   -8577.2722    7030.8979    -8422.232 
   25000          2.5  0.013555848     558.9802    600.02149   -17.384767    155.04017   -8577.3849    7030.8979   -8422.3447 
   30000            3  0.013130184    598.24024    600.02149   -16.549372    155.04017   -8576.5495    7030.8979   -8421.5093 
   35000          3.5 0.0037677288    594.18972    600.02149   -16.908879    155.04017    -8576.909    7030.8979   -8421.8688 
   40000            4 0.0073298065    552.83522    600.02149   -17.680322    155.04017   -8577.6805    7030.8979   -8422.6403 
   45000          4.5  0.016185564    619.90321    600.02149   -16.266368    155.04017   -8576.2665    7030.8979   -8421.2263 
   50000            5  0.012904008    629.97065    600.02149   -16.321297    155.04017   -8576.3214    7030.8979   -8421.2813 
   55000          5.5  0.022160044     522.0473    600.02149    -18.39937    155.04017   -8578.3995    7030.8979   -8423.3593 
   60000            6  0.011921225    586.68935    600.02149    -16.59044    155.04017   -8576.5906    7030.8979   -8421.5504 
   65000          6.5  0.016797085    540.29338    600.02149   -17.104068    155.04017   -8577.1042    7030.8979    -8422.064 
   70000            7  0.022314099    620.00188    600.02149   -17.325627    155.04017   -8577.3258    7030.8979   -8422.2856 
   75000          7.5  0.026018262    626.94482    600.02149    -16.37285    155.04017    -8576.373    7030.8979   -8421.3328 
   80000            8  0.018503298    604.73008    600.02149   -16.593104    155.04017   -8576.5932    7030.8979   -8421.5531 
   85000          8.5 0.0098713609    621.09626    600.02149   -16.402022    155.04017   -8576.4022    7030.8979    -8421.362 
   90000            9 0.0069966464    655.05295    600.02149   -15.658215    155.04017   -8575.6584    7030.8979   -8420.6182 
   95000          9.5  0.015158368    619.29262    600.02149   -16.104751    155.04017   -8576.1049    7030.8979   -8421.0647 
  100000           10 0.0099976788    577.34778    600.02149   -17.285378    155.04017   -8577.2855    7030.8979   -8422.2453 
Loop time of 251.902 on 8 procs for 100000 steps with 2000 atoms

Performance: 3.430 ns/day, 6.997 hours/ns, 396.980 timesteps/s
100.0% CPU use with 8 MPI tasks x no OpenMP threads

MPI task timing breakdown:
Section |  min time  |  avg time  |  max time  |%varavg| %total
---------------------------------------------------------------
Pair    | 54.673     | 55.965     | 56.784     |   9.5 | 22.22
Neigh   | 0          | 0          | 0          |   0.0 |  0.00
Comm    | 8.0312     | 8.6172     | 9.6897     |  18.2 |  3.42
Output  | 0.41752    | 0.45019    | 0.48287    |   3.1 |  0.18
Modify  | 185.92     | 186.51     | 187.25     |   3.7 | 74.04
Other   |            | 0.3611     |            |       |  0.14

Nlocal:    250.0 ave 250.0 max 250.0 min
Histogram: 8 0 0 0 0 0 0 0 0 0
Nghost:    1479.0 ave 1479.0 max 1479.0 min
Histogram: 8 0 0 0 0 0 0 0 0 0
Neighs:    8000.0 ave 8000.0 max 8000.0 min
Histogram: 8 0 0 0 0 0 0 0 0 0
FullNghs:  16000.0 ave 16000.0 max 16000.0 min
Histogram: 8 0 0 0 0 0 0 0 0 0

Total # of neighbors = 128000
Ave neighs/atom = 64.0
Neighbor list builds = 0
Dangerous builds = 0

Please see the log.cite file for references relevant to this simulation

Total wall time: 0:04:11
