LAMMPS (30 Jun 2020)
Lattice spacing in x,y,z = 2.8665 2.8665 2.8665
Created orthogonal box = (0.0 0.0 0.0) to (28.665 28.665 28.665)
  2 by 2 by 2 MPI processor grid
Created 2000 atoms
  create_atoms CPU = 0.001 seconds
Setting atom values ...
  2000 settings made for spin
Neighbor list info ...
  update every 10 steps, delay 20 steps, check yes
  max neighbors/atom: 2000, page size: 100000
  master list distance cutoff = 5.7733670002446
  ghost atom cutoff = 5.7733670002446
  binsize = 2.8866835001223, bins = 10.0 10.0 10.0
  2 neighbor lists, perpetual/occasional/extra = 2 0 0
  (1) pair eam/alloy, perpetual, half/full from (2)
      attributes: half, newton on
      pair build: halffull/newton
      stencil: none
      bin: none
  (2) pair spin/exchange, perpetual
      attributes: full, newton on
      pair build: full/bin/atomonly
      stencil: full/bin/3d
      bin: standard
Setting up Verlet run ...
  Unit style    : metal
  Current step  : 0
  Time step     : 0.0001
Per MPI rank memory allocation (min/avg/max) = 7.827 | 7.827 | 7.827 Mbytes
Step Time v_magnorm v_tmag Temp v_emag KinEng PotEng Press TotEng 
       0            0            1           -0    650.02328    222.33076    167.96018   -8337.6694    7616.8017   -8169.7092 
    5000          0.5   0.16634077    2452.2108    650.02328   -6.6970902    167.96018   -8566.6972    7616.8017    -8398.737 
   10000            1  0.012267806    670.29936    650.02328   -15.036352    167.96018   -8575.0365    7616.8017   -8407.0763 
   15000          1.5  0.012310476     641.2934    650.02328   -16.134789    167.96018   -8576.1349    7616.8017   -8408.1747 
   20000            2  0.016761042    668.95202    650.02328   -15.739807    167.96018   -8575.7399    7616.8017   -8407.7798 
   25000          2.5  0.019329924    651.42834    650.02328   -15.805742    167.96018   -8575.8059    7616.8017   -8407.8457 
   30000            3  0.017120997    622.52547    650.02328   -16.311977    167.96018   -8576.3121    7616.8017   -8408.3519 
   35000          3.5 0.0053395648    681.98724    650.02328   -15.402393    167.96018   -8575.4025    7616.8017   -8407.4423 
   40000            4  0.016290855    628.93229    650.02328   -15.680877    167.96018    -8575.681    7616.8017   -8407.7208 
   45000          4.5  0.011802384    683.32158    650.02328   -15.295456    167.96018   -8575.2956    7616.8017   -8407.3354 
   50000            5  0.015919743    680.18601    650.02328   -15.182489    167.96018   -8575.1826    7616.8017   -8407.2224 
   55000          5.5  0.012211742    753.79621    650.02328   -14.434442    167.96018   -8574.4346    7616.8017   -8406.4744 
   60000            6  0.015407721    574.75686    650.02328   -17.350888    167.96018    -8577.351    7616.8017   -8409.3908 
   65000          6.5  0.014858152    637.95312    650.02328   -15.676327    167.96018   -8575.6765    7616.8017   -8407.7163 
   70000            7 0.0073782159    665.83731    650.02328   -15.776711    167.96018   -8575.7768    7616.8017   -8407.8167 
   75000          7.5  0.007212706     709.6696    650.02328    -14.82009    167.96018   -8574.8202    7616.8017     -8406.86 
   80000            8 0.0090134361      585.401    650.02328   -16.459498    167.96018   -8576.4596    7616.8017   -8408.4995 
   85000          8.5 0.0098140275    602.18769    650.02328   -16.295723    167.96018   -8576.2959    7616.8017   -8408.3357 
   90000            9 0.0076305921    573.87336    650.02328   -17.036978    167.96018   -8577.0371    7616.8017   -8409.0769 
   95000          9.5  0.018126292    605.60813    650.02328   -16.422808    167.96018   -8576.4229    7616.8017   -8408.4628 
  100000           10  0.015730883    711.22884    650.02328   -14.663928    167.96018   -8574.6641    7616.8017   -8406.7039 
Loop time of 270.951 on 8 procs for 100000 steps with 2000 atoms

Performance: 3.189 ns/day, 7.526 hours/ns, 369.070 timesteps/s
100.0% CPU use with 8 MPI tasks x no OpenMP threads

MPI task timing breakdown:
Section |  min time  |  avg time  |  max time  |%varavg| %total
---------------------------------------------------------------
Pair    | 54.866     | 56.195     | 56.852     |   8.4 | 20.74
Neigh   | 0          | 0          | 0          |   0.0 |  0.00
Comm    | 9.3874     | 10.202     | 11.458     |  20.0 |  3.77
Output  | 0.41704    | 0.44622    | 0.47757    |   2.9 |  0.16
Modify  | 203.18     | 203.73     | 204.3      |   3.0 | 75.19
Other   |            | 0.3779     |            |       |  0.14

Nlocal:    250.0 ave 250.0 max 250.0 min
Histogram: 8 0 0 0 0 0 0 0 0 0
Nghost:    1479.0 ave 1479.0 max 1479.0 min
Histogram: 8 0 0 0 0 0 0 0 0 0
Neighs:    8000.0 ave 8000.0 max 8000.0 min
Histogram: 8 0 0 0 0 0 0 0 0 0
FullNghs:  16000.0 ave 16000.0 max 16000.0 min
Histogram: 8 0 0 0 0 0 0 0 0 0

Total # of neighbors = 128000
Ave neighs/atom = 64.0
Neighbor list builds = 0
Dangerous builds = 0

Please see the log.cite file for references relevant to this simulation

Total wall time: 0:04:30
