LAMMPS (30 Jun 2020)
Lattice spacing in x,y,z = 2.8665 2.8665 2.8665
Created orthogonal box = (0.0 0.0 0.0) to (28.665 28.665 28.665)
  2 by 2 by 2 MPI processor grid
Created 2000 atoms
  create_atoms CPU = 0.001 seconds
Setting atom values ...
  2000 settings made for spin
Neighbor list info ...
  update every 10 steps, delay 20 steps, check yes
  max neighbors/atom: 2000, page size: 100000
  master list distance cutoff = 5.7733670002446
  ghost atom cutoff = 5.7733670002446
  binsize = 2.8866835001223, bins = 10.0 10.0 10.0
  2 neighbor lists, perpetual/occasional/extra = 2 0 0
  (1) pair eam/alloy, perpetual, half/full from (2)
      attributes: half, newton on
      pair build: halffull/newton
      stencil: none
      bin: none
  (2) pair spin/exchange, perpetual
      attributes: full, newton on
      pair build: full/bin/atomonly
      stencil: full/bin/3d
      bin: standard
Setting up Verlet run ...
  Unit style    : metal
  Current step  : 0
  Time step     : 0.0001
Per MPI rank memory allocation (min/avg/max) = 7.827 | 7.827 | 7.827 Mbytes
Step Time v_magnorm v_tmag Temp v_emag KinEng PotEng Press TotEng 
       0            0            1           -0    750.02686    222.33076    193.80021   -8337.6694    8788.6091   -8143.8692 
    5000          0.5   0.15179323    2110.3291    750.02686   -7.0879551    193.80021   -8567.0881    8788.6091   -8373.2879 
   10000            1   0.04463226    828.34179    750.02686   -13.620686    193.80021   -8573.6208    8788.6091   -8379.8206 
   15000          1.5 0.0059284595    749.53587    750.02686   -14.508725    193.80021   -8574.5089    8788.6091   -8380.7087 
   20000            2  0.017157874      832.049    750.02686   -13.471609    193.80021   -8573.4717    8788.6091   -8379.6715 
   25000          2.5  0.029485765    678.07348    750.02686   -15.475894    193.80021    -8575.476    8788.6091   -8381.6758 
   30000            3  0.015087447    751.14872    750.02686   -14.523071    193.80021   -8574.5232    8788.6091    -8380.723 
   35000          3.5  0.011567278    672.39629    750.02686   -15.160285    193.80021   -8575.1604    8788.6091   -8381.3602 
   40000            4  0.011615019    707.41653    750.02686   -15.018762    193.80021   -8575.0189    8788.6091   -8381.2187 
   45000          4.5 0.0092196731    674.59065    750.02686   -15.307981    193.80021   -8575.3081    8788.6091   -8381.5079 
   50000            5  0.012798115    788.18916    750.02686   -13.682146    193.80021   -8573.6823    8788.6091   -8379.8821 
   55000          5.5  0.013373689    685.84941    750.02686   -15.178187    193.80021   -8575.1783    8788.6091   -8381.3781 
   60000            6 0.0099616901    878.61237    750.02686   -12.406535    193.80021   -8572.4067    8788.6091   -8378.6065 
   65000          6.5  0.011041661    742.35588    750.02686   -14.219806    193.80021   -8574.2199    8788.6091   -8380.4197 
   70000            7 0.0078414584    734.25848    750.02686   -14.649315    193.80021   -8574.6495    8788.6091   -8380.8492 
   75000          7.5  0.015102917    701.31893    750.02686   -14.676072    193.80021   -8574.6762    8788.6091    -8380.876 
   80000            8   0.01804172    814.24317    750.02686   -13.572384    193.80021   -8573.5725    8788.6091   -8379.7723 
   85000          8.5 0.0075656228    667.31068    750.02686   -15.419629    193.80021   -8575.4198    8788.6091   -8381.6196 
   90000            9   0.01569297    657.96472    750.02686   -15.532611    193.80021   -8575.5327    8788.6091   -8381.7325 
   95000          9.5  0.018149417    788.01949    750.02686   -13.572271    193.80021   -8573.5724    8788.6091   -8379.7722 
  100000           10 0.0084523366    640.97413    750.02686   -15.794023    193.80021   -8575.7942    8788.6091   -8381.9939 
Loop time of 251.526 on 8 procs for 100000 steps with 2000 atoms

Performance: 3.435 ns/day, 6.987 hours/ns, 397.574 timesteps/s
100.0% CPU use with 8 MPI tasks x no OpenMP threads

MPI task timing breakdown:
Section |  min time  |  avg time  |  max time  |%varavg| %total
---------------------------------------------------------------
Pair    | 55.587     | 56.163     | 57.177     |   6.4 | 22.33
Neigh   | 0          | 0          | 0          |   0.0 |  0.00
Comm    | 8.1808     | 8.8481     | 9.8091     |  19.6 |  3.52
Output  | 0.43793    | 0.46865    | 0.50396    |   3.2 |  0.19
Modify  | 185.18     | 185.69     | 186.29     |   3.3 | 73.82
Other   |            | 0.3595     |            |       |  0.14

Nlocal:    250.0 ave 250.0 max 250.0 min
Histogram: 8 0 0 0 0 0 0 0 0 0
Nghost:    1479.0 ave 1479.0 max 1479.0 min
Histogram: 8 0 0 0 0 0 0 0 0 0
Neighs:    8000.0 ave 8000.0 max 8000.0 min
Histogram: 8 0 0 0 0 0 0 0 0 0
FullNghs:  16000.0 ave 16000.0 max 16000.0 min
Histogram: 8 0 0 0 0 0 0 0 0 0

Total # of neighbors = 128000
Ave neighs/atom = 64.0
Neighbor list builds = 0
Dangerous builds = 0

Please see the log.cite file for references relevant to this simulation

Total wall time: 0:04:11
