LAMMPS (30 Jun 2020)
Lattice spacing in x,y,z = 2.8665 2.8665 2.8665
Created orthogonal box = (0.0 0.0 0.0) to (28.665 28.665 28.665)
  2 by 2 by 2 MPI processor grid
Created 2000 atoms
  create_atoms CPU = 0.001 seconds
Setting atom values ...
  2000 settings made for spin
Neighbor list info ...
  update every 10 steps, delay 20 steps, check yes
  max neighbors/atom: 2000, page size: 100000
  master list distance cutoff = 5.7733670002446
  ghost atom cutoff = 5.7733670002446
  binsize = 2.8866835001223, bins = 10.0 10.0 10.0
  2 neighbor lists, perpetual/occasional/extra = 2 0 0
  (1) pair eam/alloy, perpetual, half/full from (2)
      attributes: half, newton on
      pair build: halffull/newton
      stencil: none
      bin: none
  (2) pair spin/exchange, perpetual
      attributes: full, newton on
      pair build: full/bin/atomonly
      stencil: full/bin/3d
      bin: standard
Setting up Verlet run ...
  Unit style    : metal
  Current step  : 0
  Time step     : 0.0001
Per MPI rank memory allocation (min/avg/max) = 7.827 | 7.827 | 7.827 Mbytes
Step Time v_magnorm v_tmag Temp v_emag KinEng PotEng Press TotEng 
       0            0            1           -0    700.02507    222.33076     180.8802   -8337.6694    8202.7054   -8156.7892 
    5000          0.5   0.16480142    2189.7576    700.02507   -7.2653674     180.8802   -8567.2655    8202.7054   -8386.3853 
   10000            1  0.018108397    706.30628    700.02507   -14.711654     180.8802   -8574.7118    8202.7054   -8393.8316 
   15000          1.5 0.0093506607    726.97008    700.02507   -14.645133     180.8802   -8574.6453    8202.7054   -8393.7651 
   20000            2  0.023274623    692.28541    700.02507   -14.471655     180.8802   -8574.4718    8202.7054   -8393.5916 
   25000          2.5  0.010762541    683.55086    700.02507   -14.660981     180.8802   -8574.6611    8202.7054   -8393.7809 
   30000            3 0.0021444812    716.33836    700.02507   -14.663818     180.8802    -8574.664    8202.7054   -8393.7838 
   35000          3.5 0.0098651651    686.99113    700.02507   -15.348316     180.8802   -8575.3485    8202.7054   -8394.4683 
   40000            4  0.021010297    665.36994    700.02507    -15.64134     180.8802   -8575.6415    8202.7054   -8394.7613 
   45000          4.5  0.015027793    672.85987    700.02507   -15.580043     180.8802   -8575.5802    8202.7054      -8394.7 
   50000            5   0.02282606    702.42367    700.02507   -15.164661     180.8802   -8575.1648    8202.7054   -8394.2846 
   55000          5.5  0.015012052    744.72157    700.02507   -14.369462     180.8802   -8574.3696    8202.7054   -8393.4894 
   60000            6 0.0077561437    643.20152    700.02507   -15.643605     180.8802   -8575.6437    8202.7054   -8394.7635 
   65000          6.5 0.0067744304    754.42869    700.02507   -14.476705     180.8802   -8574.4768    8202.7054   -8393.5966 
   70000            7  0.027400996    757.08601    700.02507   -14.170711     180.8802   -8574.1708    8202.7054   -8393.2907 
   75000          7.5  0.012280025    744.24486    700.02507   -14.812106     180.8802   -8574.8122    8202.7054    -8393.932 
   80000            8  0.010043959    621.59835    700.02507   -15.996723     180.8802   -8575.9969    8202.7054   -8395.1167 
   85000          8.5  0.022492583    778.16073    700.02507   -13.792712     180.8802   -8573.7929    8202.7054   -8392.9127 
   90000            9  0.018900387    720.18473    700.02507   -14.387522     180.8802   -8574.3877    8202.7054   -8393.5075 
   95000          9.5  0.016384125    704.15373    700.02507   -14.251785     180.8802   -8574.2519    8202.7054   -8393.3717 
  100000           10  0.015821096    671.68966    700.02507   -15.196305     180.8802   -8575.1964    8202.7054   -8394.3162 
Loop time of 276.82 on 8 procs for 100000 steps with 2000 atoms

Performance: 3.121 ns/day, 7.689 hours/ns, 361.246 timesteps/s
100.0% CPU use with 8 MPI tasks x no OpenMP threads

MPI task timing breakdown:
Section |  min time  |  avg time  |  max time  |%varavg| %total
---------------------------------------------------------------
Pair    | 55.284     | 56.149     | 56.998     |   7.4 | 20.28
Neigh   | 0          | 0          | 0          |   0.0 |  0.00
Comm    | 9.5632     | 10.201     | 11.247     |  16.9 |  3.69
Output  | 0.43207    | 0.46507    | 0.49592    |   3.0 |  0.17
Modify  | 209.34     | 209.66     | 210.15     |   1.8 | 75.74
Other   |            | 0.3444     |            |       |  0.12

Nlocal:    250.0 ave 250.0 max 250.0 min
Histogram: 8 0 0 0 0 0 0 0 0 0
Nghost:    1479.0 ave 1479.0 max 1479.0 min
Histogram: 8 0 0 0 0 0 0 0 0 0
Neighs:    8000.0 ave 8000.0 max 8000.0 min
Histogram: 8 0 0 0 0 0 0 0 0 0
FullNghs:  16000.0 ave 16000.0 max 16000.0 min
Histogram: 8 0 0 0 0 0 0 0 0 0

Total # of neighbors = 128000
Ave neighs/atom = 64.0
Neighbor list builds = 0
Dangerous builds = 0

Please see the log.cite file for references relevant to this simulation

Total wall time: 0:04:36
