LAMMPS (30 Jun 2020)
Lattice spacing in x,y,z = 2.8665 2.8665 2.8665
Created orthogonal box = (0.0 0.0 0.0) to (28.665 28.665 28.665)
  2 by 2 by 2 MPI processor grid
Created 2000 atoms
  create_atoms CPU = 0.001 seconds
Setting atom values ...
  2000 settings made for spin
Neighbor list info ...
  update every 10 steps, delay 20 steps, check yes
  max neighbors/atom: 2000, page size: 100000
  master list distance cutoff = 5.7733670002446
  ghost atom cutoff = 5.7733670002446
  binsize = 2.8866835001223, bins = 10.0 10.0 10.0
  2 neighbor lists, perpetual/occasional/extra = 2 0 0
  (1) pair eam/alloy, perpetual, half/full from (2)
      attributes: half, newton on
      pair build: halffull/newton
      stencil: none
      bin: none
  (2) pair spin/exchange, perpetual
      attributes: full, newton on
      pair build: full/bin/atomonly
      stencil: full/bin/3d
      bin: standard
Setting up Verlet run ...
  Unit style    : metal
  Current step  : 0
  Time step     : 0.0001
Per MPI rank memory allocation (min/avg/max) = 7.827 | 7.827 | 7.827 Mbytes
Step Time v_magnorm v_tmag Temp v_emag KinEng PotEng Press TotEng 
       0            0            1           -0    850.03044    222.33076    219.64024   -8337.6694    9960.4165   -8118.0291 
    5000          0.5   0.12968558    1814.0621    850.03044   -8.0822448    219.64024   -8568.0824    9960.4165   -8348.4421 
   10000            1  0.024546576    863.37244    850.03044   -12.654096    219.64024   -8572.6542    9960.4165    -8353.014 
   15000          1.5  0.011960813    962.81226    850.03044   -11.885212    219.64024   -8571.8854    9960.4165   -8352.2451 
   20000            2  0.014758973    818.19645    850.03044   -13.266216    219.64024   -8573.2664    9960.4165   -8353.6261 
   25000          2.5  0.017324576    852.94443    850.03044   -12.645173    219.64024   -8572.6453    9960.4165   -8353.0051 
   30000            3   0.01320035    932.38783    850.03044   -11.789073    219.64024   -8571.7892    9960.4165    -8352.149 
   35000          3.5  0.011694958     844.8782    850.03044   -12.820692    219.64024   -8572.8208    9960.4165   -8353.1806 
   40000            4 0.0073321506    810.61135    850.03044   -13.290414    219.64024   -8573.2906    9960.4165   -8353.6503 
   45000          4.5  0.020505889    820.64253    850.03044   -12.872266    219.64024   -8572.8724    9960.4165   -8353.2322 
   50000            5 0.0097136738    739.41406    850.03044      -13.995    219.64024   -8573.9951    9960.4165   -8354.3549 
   55000          5.5  0.014074696    958.02921    850.03044   -11.859738    219.64024   -8571.8599    9960.4165   -8352.2196 
   60000            6 0.0097829035    947.94507    850.03044   -11.479512    219.64024   -8571.4797    9960.4165   -8351.8394 
   65000          6.5  0.014347443    786.93037    850.03044   -13.152856    219.64024    -8573.153    9960.4165   -8353.5128 
   70000            7  0.006478984    975.31861    850.03044   -11.722859    219.64024    -8571.723    9960.4165   -8352.0828 
   75000          7.5 0.0086986068    824.57251    850.03044   -13.409188    219.64024   -8573.4093    9960.4165   -8353.7691 
   80000            8  0.013558875    835.57355    850.03044    -12.81549    219.64024   -8572.8156    9960.4165   -8353.1754 
   85000          8.5   0.02322478    971.45903    850.03044   -11.978988    219.64024   -8571.9791    9960.4165   -8352.3389 
   90000            9  0.021327473    895.43125    850.03044    -12.75643    219.64024   -8572.7566    9960.4165   -8353.1163 
   95000          9.5  0.017214644    826.90529    850.03044   -13.516053    219.64024   -8573.5162    9960.4165    -8353.876 
  100000           10  0.017017322    875.20189    850.03044   -12.368086    219.64024   -8572.3682    9960.4165    -8352.728 
Loop time of 222.622 on 8 procs for 100000 steps with 2000 atoms

Performance: 3.881 ns/day, 6.184 hours/ns, 449.193 timesteps/s
100.0% CPU use with 8 MPI tasks x no OpenMP threads

MPI task timing breakdown:
Section |  min time  |  avg time  |  max time  |%varavg| %total
---------------------------------------------------------------
Pair    | 54.357     | 55.238     | 55.673     |   5.8 | 24.81
Neigh   | 0          | 0          | 0          |   0.0 |  0.00
Comm    | 6.3919     | 6.9344     | 7.9229     |  18.3 |  3.11
Output  | 0.43048    | 0.46023    | 0.49238    |   3.0 |  0.21
Modify  | 159.4      | 159.54     | 159.64     |   0.7 | 71.66
Other   |            | 0.4505     |            |       |  0.20

Nlocal:    250.0 ave 250.0 max 250.0 min
Histogram: 8 0 0 0 0 0 0 0 0 0
Nghost:    1479.0 ave 1479.0 max 1479.0 min
Histogram: 8 0 0 0 0 0 0 0 0 0
Neighs:    8000.0 ave 8000.0 max 8000.0 min
Histogram: 8 0 0 0 0 0 0 0 0 0
FullNghs:  16000.0 ave 16000.0 max 16000.0 min
Histogram: 8 0 0 0 0 0 0 0 0 0

Total # of neighbors = 128000
Ave neighs/atom = 64.0
Neighbor list builds = 0
Dangerous builds = 0

Please see the log.cite file for references relevant to this simulation

Total wall time: 0:03:42
