LAMMPS (30 Jun 2020)
Lattice spacing in x,y,z = 2.8665 2.8665 2.8665
Created orthogonal box = (0.0 0.0 0.0) to (28.665 28.665 28.665)
  2 by 2 by 2 MPI processor grid
Created 2000 atoms
  create_atoms CPU = 0.001 seconds
Setting atom values ...
  2000 settings made for spin
Neighbor list info ...
  update every 10 steps, delay 20 steps, check yes
  max neighbors/atom: 2000, page size: 100000
  master list distance cutoff = 5.7733670002446
  ghost atom cutoff = 5.7733670002446
  binsize = 2.8866835001223, bins = 10.0 10.0 10.0
  2 neighbor lists, perpetual/occasional/extra = 2 0 0
  (1) pair eam/alloy, perpetual, half/full from (2)
      attributes: half, newton on
      pair build: halffull/newton
      stencil: none
      bin: none
  (2) pair spin/exchange, perpetual
      attributes: full, newton on
      pair build: full/bin/atomonly
      stencil: full/bin/3d
      bin: standard
Setting up Verlet run ...
  Unit style    : metal
  Current step  : 0
  Time step     : 0.0001
Per MPI rank memory allocation (min/avg/max) = 7.827 | 7.827 | 7.827 Mbytes
Step Time v_magnorm v_tmag Temp v_emag KinEng PotEng Press TotEng 
       0            0            1           -0    800.02865    222.33076    206.72023   -8337.6694    9374.5128   -8130.9492 
    5000          0.5   0.13844051     1881.097    800.02865    -8.168931    206.72023   -8568.1691    9374.5128   -8361.4488 
   10000            1  0.024911456    779.28577    800.02865   -13.887198    206.72023   -8573.8873    9374.5128   -8367.1671 
   15000          1.5 0.0092243934     808.7399    800.02865   -13.037331    206.72023   -8573.0375    9374.5128   -8366.3172 
   20000            2  0.010623621    754.78039    800.02865   -14.018561    206.72023   -8574.0187    9374.5128   -8367.2985 
   25000          2.5  0.025323817    777.41695    800.02865   -13.309947    206.72023   -8573.3101    9374.5128   -8366.5899 
   30000            3  0.019981528    811.80452    800.02865    -13.17792    206.72023   -8573.1781    9374.5128   -8366.4578 
   35000          3.5 0.0030746446    739.27106    800.02865   -14.208017    206.72023   -8574.2082    9374.5128   -8367.4879 
   40000            4  0.018608047     780.6966    800.02865   -14.337059    206.72023   -8574.3372    9374.5128    -8367.617 
   45000          4.5  0.010193533    829.85291    800.02865   -12.732073    206.72023   -8572.7322    9374.5128    -8366.012 
   50000            5  0.012139771    812.88244    800.02865   -13.079261    206.72023   -8573.0794    9374.5128   -8366.3592 
   55000          5.5  0.018390221    711.53436    800.02865   -14.724372    206.72023   -8574.7245    9374.5128   -8368.0043 
   60000            6  0.014082527    825.72819    800.02865   -13.553097    206.72023   -8573.5532    9374.5128    -8366.833 
   65000          6.5  0.014456058    817.58315    800.02865   -13.517012    206.72023   -8573.5172    9374.5128   -8366.7969 
   70000            7  0.013735176    778.13937    800.02865   -14.119744    206.72023   -8574.1199    9374.5128   -8367.3997 
   75000          7.5  0.015601431    810.87408    800.02865   -13.681827    206.72023    -8573.682    9374.5128   -8366.9617 
   80000            8  0.021241702    858.72357    800.02865    -13.07947    206.72023   -8573.0796    9374.5128   -8366.3594 
   85000          8.5  0.023393706    798.88537    800.02865   -13.231704    206.72023   -8573.2318    9374.5128   -8366.5116 
   90000            9  0.014367227    693.46273    800.02865    -14.97014    206.72023   -8574.9703    9374.5128   -8368.2501 
   95000          9.5  0.013860272     773.2884    800.02865   -14.304156    206.72023   -8574.3043    9374.5128   -8367.5841 
  100000           10  0.018631572    766.34714    800.02865   -14.134728    206.72023   -8574.1349    9374.5128   -8367.4146 
Loop time of 262.962 on 8 procs for 100000 steps with 2000 atoms

Performance: 3.286 ns/day, 7.305 hours/ns, 380.283 timesteps/s
100.0% CPU use with 8 MPI tasks x no OpenMP threads

MPI task timing breakdown:
Section |  min time  |  avg time  |  max time  |%varavg| %total
---------------------------------------------------------------
Pair    | 54.681     | 56.032     | 56.894     |  10.5 | 21.31
Neigh   | 0          | 0          | 0          |   0.0 |  0.00
Comm    | 8.3641     | 8.9739     | 9.9687     |  17.0 |  3.41
Output  | 0.42182    | 0.44972    | 0.47926    |   2.9 |  0.17
Modify  | 196.45     | 197.16     | 197.65     |   2.9 | 74.98
Other   |            | 0.3492     |            |       |  0.13

Nlocal:    250.0 ave 250.0 max 250.0 min
Histogram: 8 0 0 0 0 0 0 0 0 0
Nghost:    1479.0 ave 1479.0 max 1479.0 min
Histogram: 8 0 0 0 0 0 0 0 0 0
Neighs:    8000.0 ave 8000.0 max 8000.0 min
Histogram: 8 0 0 0 0 0 0 0 0 0
FullNghs:  16000.0 ave 16000.0 max 16000.0 min
Histogram: 8 0 0 0 0 0 0 0 0 0

Total # of neighbors = 128000
Ave neighs/atom = 64.0
Neighbor list builds = 0
Dangerous builds = 0

Please see the log.cite file for references relevant to this simulation

Total wall time: 0:04:22
