LAMMPS (30 Jun 2020)
Lattice spacing in x,y,z = 2.8665 2.8665 2.8665
Created orthogonal box = (0.0 0.0 0.0) to (28.665 28.665 28.665)
  2 by 2 by 2 MPI processor grid
Created 2000 atoms
  create_atoms CPU = 0.001 seconds
Setting atom values ...
  2000 settings made for spin
Neighbor list info ...
  update every 10 steps, delay 20 steps, check yes
  max neighbors/atom: 2000, page size: 100000
  master list distance cutoff = 5.7733670002446
  ghost atom cutoff = 5.7733670002446
  binsize = 2.8866835001223, bins = 10.0 10.0 10.0
  2 neighbor lists, perpetual/occasional/extra = 2 0 0
  (1) pair eam/alloy, perpetual, half/full from (2)
      attributes: half, newton on
      pair build: halffull/newton
      stencil: none
      bin: none
  (2) pair spin/exchange, perpetual
      attributes: full, newton on
      pair build: full/bin/atomonly
      stencil: full/bin/3d
      bin: standard
Setting up Verlet run ...
  Unit style    : metal
  Current step  : 0
  Time step     : 0.0001
Per MPI rank memory allocation (min/avg/max) = 7.827 | 7.827 | 7.827 Mbytes
Step Time v_magnorm v_tmag Temp v_emag KinEng PotEng Press TotEng 
       0            0            1           -0    950.03402    222.33076    245.48027   -8337.6694    11132.224   -8092.1891 
    5000          0.5  0.095653204     1442.622    950.03402    -9.051119    245.48027   -8569.0513    11132.224    -8323.571 
   10000            1  0.013672486     1090.516    950.03402   -10.915669    245.48027   -8570.9158    11132.224   -8325.4355 
   15000          1.5  0.014906807    1005.1876    950.03402   -11.698778    245.48027   -8571.6989    11132.224   -8326.2186 
   20000            2  0.012377584    835.83457    950.03402   -13.305451    245.48027   -8573.3056    11132.224   -8327.8253 
   25000          2.5  0.024289501    1005.9831    950.03402   -11.420982    245.48027   -8571.4211    11132.224   -8325.9409 
   30000            3  0.014544767    947.04467    950.03402   -11.785442    245.48027   -8571.7856    11132.224   -8326.3053 
   35000          3.5    0.0200621    911.72806    950.03402   -12.424092    245.48027   -8572.4242    11132.224    -8326.944 
   40000            4  0.027102547    1057.0921    950.03402   -10.926921    245.48027   -8570.9271    11132.224   -8325.4468 
   45000          4.5  0.016452335     989.4041    950.03402   -11.415993    245.48027   -8571.4161    11132.224   -8325.9359 
   50000            5  0.027635375    977.73613    950.03402   -11.524883    245.48027    -8571.525    11132.224   -8326.0448 
   55000          5.5 0.0087613975    1080.0289    950.03402   -10.959636    245.48027   -8570.9598    11132.224   -8325.4795 
   60000            6  0.026662764    1013.9828    950.03402   -11.560958    245.48027   -8571.5611    11132.224   -8326.0808 
   65000          6.5 0.0046430565    878.31898    950.03402   -11.992961    245.48027   -8571.9931    11132.224   -8326.5128 
   70000            7  0.020557502    898.06153    950.03402   -11.676441    245.48027   -8571.6766    11132.224   -8326.1963 
   75000          7.5 0.0057532301    920.02788    950.03402   -12.068324    245.48027   -8572.0685    11132.224   -8326.5882 
   80000            8  0.015426652    938.29531    950.03402   -11.845199    245.48027   -8571.8453    11132.224   -8326.3651 
   85000          8.5  0.031415208    1119.1285    950.03402   -10.416421    245.48027   -8570.4166    11132.224   -8324.9363 
   90000            9   0.01388936    922.49298    950.03402   -11.696221    245.48027   -8571.6964    11132.224   -8326.2161 
   95000          9.5 0.0082307915    1023.6639    950.03402   -11.201998    245.48027   -8571.2021    11132.224   -8325.7219 
  100000           10 0.0076687124    931.38536    950.03402       -11.53    245.48027   -8571.5301    11132.224   -8326.0499 
Loop time of 246.841 on 8 procs for 100000 steps with 2000 atoms

Performance: 3.500 ns/day, 6.857 hours/ns, 405.119 timesteps/s
100.0% CPU use with 8 MPI tasks x no OpenMP threads

MPI task timing breakdown:
Section |  min time  |  avg time  |  max time  |%varavg| %total
---------------------------------------------------------------
Pair    | 54.938     | 55.81      | 56.441     |   6.5 | 22.61
Neigh   | 0          | 0          | 0          |   0.0 |  0.00
Comm    | 7.7536     | 8.3479     | 8.9652     |  13.4 |  3.38
Output  | 0.43228    | 0.45689    | 0.48402    |   2.6 |  0.19
Modify  | 181.4      | 181.87     | 182.29     |   2.6 | 73.68
Other   |            | 0.3602     |            |       |  0.15

Nlocal:    250.0 ave 250.0 max 250.0 min
Histogram: 8 0 0 0 0 0 0 0 0 0
Nghost:    1479.0 ave 1479.0 max 1479.0 min
Histogram: 8 0 0 0 0 0 0 0 0 0
Neighs:    8000.0 ave 8000.0 max 8000.0 min
Histogram: 8 0 0 0 0 0 0 0 0 0
FullNghs:  16000.0 ave 16000.0 max 16000.0 min
Histogram: 8 0 0 0 0 0 0 0 0 0

Total # of neighbors = 128000
Ave neighs/atom = 64.0
Neighbor list builds = 0
Dangerous builds = 0

Please see the log.cite file for references relevant to this simulation

Total wall time: 0:04:06
