LAMMPS (30 Jun 2020)
Lattice spacing in x,y,z = 2.8665 2.8665 2.8665
Created orthogonal box = (0.0 0.0 0.0) to (28.665 28.665 28.665)
  2 by 2 by 2 MPI processor grid
Created 2000 atoms
  create_atoms CPU = 0.001 seconds
Setting atom values ...
  2000 settings made for spin
Neighbor list info ...
  update every 10 steps, delay 20 steps, check yes
  max neighbors/atom: 2000, page size: 100000
  master list distance cutoff = 5.7733670002446
  ghost atom cutoff = 5.7733670002446
  binsize = 2.8866835001223, bins = 10.0 10.0 10.0
  2 neighbor lists, perpetual/occasional/extra = 2 0 0
  (1) pair eam/alloy, perpetual, half/full from (2)
      attributes: half, newton on
      pair build: halffull/newton
      stencil: none
      bin: none
  (2) pair spin/exchange, perpetual
      attributes: full, newton on
      pair build: full/bin/atomonly
      stencil: full/bin/3d
      bin: standard
Setting up Verlet run ...
  Unit style    : metal
  Current step  : 0
  Time step     : 0.0001
Per MPI rank memory allocation (min/avg/max) = 7.827 | 7.827 | 7.827 Mbytes
Step Time v_magnorm v_tmag Temp v_emag KinEng PotEng Press TotEng 
       0            0            1           -0    1000.0358    222.33076    258.40028   -8337.6694    11718.128   -8079.2691 
    5000          0.5   0.12441791    1450.1769    1000.0358   -9.3273587    258.40028   -8569.3275    11718.128   -8310.9272 
   10000            1 0.0076720474    911.66343    1000.0358    -11.85406    258.40028   -8571.8542    11718.128   -8313.4539 
   15000          1.5  0.012062564    906.83672    1000.0358   -12.054127    258.40028   -8572.0543    11718.128    -8313.654 
   20000            2   0.02692814    1075.2442    1000.0358   -10.614849    258.40028    -8570.615    11718.128   -8312.2147 
   25000          2.5  0.012412494    935.80233    1000.0358     -11.8689    258.40028    -8571.869    11718.128   -8313.4688 
   30000            3  0.026235037      1051.56    1000.0358   -10.837587    258.40028   -8570.8377    11718.128   -8312.4374 
   35000          3.5  0.016633834    1037.8271    1000.0358   -11.184609    258.40028   -8571.1847    11718.128   -8312.7845 
   40000            4  0.018911871    1006.7214    1000.0358   -11.116936    258.40028   -8571.1171    11718.128   -8312.7168 
   45000          4.5  0.017663675    1159.9572    1000.0358   -10.014543    258.40028   -8570.0147    11718.128   -8311.6144 
   50000            5   0.01720891    1031.0249    1000.0358   -11.206299    258.40028   -8571.2064    11718.128   -8312.8062 
   55000          5.5  0.014032566    1055.5373    1000.0358    -10.91487    258.40028    -8570.915    11718.128   -8312.5147 
   60000            6  0.040407406    1197.6507    1000.0358   -10.069052    258.40028   -8570.0692    11718.128   -8311.6689 
   65000          6.5  0.009343614    1145.5559    1000.0358   -10.386806    258.40028   -8570.3869    11718.128   -8311.9867 
   70000            7   0.03493164    1163.0036    1000.0358   -10.080168    258.40028   -8570.0803    11718.128     -8311.68 
   75000          7.5 0.0005989683    873.25446    1000.0358   -12.755322    258.40028   -8572.7555    11718.128   -8314.3552 
   80000            8 0.0079072872    1061.3354    1000.0358    -10.97471    258.40028   -8570.9748    11718.128   -8312.5746 
   85000          8.5  0.023550858     997.1363    1000.0358   -11.277943    258.40028   -8571.2781    11718.128   -8312.8778 
   90000            9   0.01876106    1075.0272    1000.0358   -10.954191    258.40028   -8570.9543    11718.128    -8312.554 
   95000          9.5  0.015699512    880.63316    1000.0358   -12.379216    258.40028   -8572.3794    11718.128   -8313.9791 
  100000           10 0.0095987567    1002.0201    1000.0358   -11.673368    258.40028   -8571.6735    11718.128   -8313.2732 
Loop time of 267.792 on 8 procs for 100000 steps with 2000 atoms

Performance: 3.226 ns/day, 7.439 hours/ns, 373.424 timesteps/s
100.0% CPU use with 8 MPI tasks x no OpenMP threads

MPI task timing breakdown:
Section |  min time  |  avg time  |  max time  |%varavg| %total
---------------------------------------------------------------
Pair    | 54.994     | 55.899     | 56.526     |   7.0 | 20.87
Neigh   | 0          | 0          | 0          |   0.0 |  0.00
Comm    | 8.597      | 9.6537     | 10.711     |  20.4 |  3.60
Output  | 0.44417    | 0.47177    | 0.49739    |   2.5 |  0.18
Modify  | 201.06     | 201.42     | 202.03     |   2.0 | 75.21
Other   |            | 0.3504     |            |       |  0.13

Nlocal:    250.0 ave 250.0 max 250.0 min
Histogram: 8 0 0 0 0 0 0 0 0 0
Nghost:    1479.0 ave 1479.0 max 1479.0 min
Histogram: 8 0 0 0 0 0 0 0 0 0
Neighs:    8000.0 ave 8000.0 max 8000.0 min
Histogram: 8 0 0 0 0 0 0 0 0 0
FullNghs:  16000.0 ave 16000.0 max 16000.0 min
Histogram: 8 0 0 0 0 0 0 0 0 0

Total # of neighbors = 128000
Ave neighs/atom = 64.0
Neighbor list builds = 0
Dangerous builds = 0

Please see the log.cite file for references relevant to this simulation

Total wall time: 0:04:27
