LAMMPS (30 Jun 2020)
Lattice spacing in x,y,z = 2.8665 2.8665 2.8665
Created orthogonal box = (0.0 0.0 0.0) to (14.3325 14.3325 14.3325)
  2 by 2 by 2 MPI processor grid
Created 250 atoms
  create_atoms CPU = 0.000 seconds
Setting atom values ...
  250 settings made for spin
Neighbor list info ...
  update every 10 steps, delay 20 steps, check yes
  max neighbors/atom: 2000, page size: 100000
  master list distance cutoff = 5.7733670002446
  ghost atom cutoff = 5.7733670002446
  binsize = 2.8866835001223, bins = 5.0 5.0 5.0
  2 neighbor lists, perpetual/occasional/extra = 2 0 0
  (1) pair eam/alloy, perpetual, half/full from (2)
      attributes: half, newton on
      pair build: halffull/newton
      stencil: none
      bin: none
  (2) pair spin/exchange, perpetual
      attributes: full, newton on
      pair build: full/bin/atomonly
      stencil: full/bin/3d
      bin: standard
Setting up Verlet run ...
  Unit style    : metal
  Current step  : 0
  Time step     : 0.0001
Per MPI rank memory allocation (min/avg/max) = 7.742 | 7.742 | 7.742 Mbytes
Step Time v_magnorm v_tmag Temp v_emag KinEng PotEng Press TotEng 
       0            0            1           -0    50.001791    27.791345    1.6093464   -1042.2087    583.90541   -1040.5993 
    5000          0.5   0.67811437   -854.20461    50.001791    11.129413    1.6093464   -1058.8706    583.90541   -1057.2613 
   10000            1   0.20326218    659.20787    50.001791   -3.5867956    1.6093464   -1073.5868    583.90541   -1071.9775 
   15000          1.5  0.039724554    162.18842    50.001791   -7.0513216    1.6093464   -1077.0513    583.90541    -1075.442 
   20000            2 0.0056331219    100.73854    50.001791   -8.6950747    1.6093464   -1078.6951    583.90541   -1077.0857 
   25000          2.5  0.004994157    73.205812    50.001791   -9.5384503    1.6093464   -1079.5385    583.90541   -1077.9291 
   30000            3 0.0077405369    54.988356    50.001791   -9.8371027    1.6093464   -1079.8371    583.90541   -1078.2278 
   35000          3.5 0.0071547372    45.978313    50.001791   -9.9949971    1.6093464    -1079.995    583.90541   -1078.3857 
   40000            4 0.0087764542    49.463245    50.001791   -10.047524    1.6093464   -1080.0475    583.90541   -1078.4382 
   45000          4.5 0.0071183059    50.479682    50.001791   -10.023426    1.6093464   -1080.0234    583.90541   -1078.4141 
   50000            5 0.0097598477    48.014331    50.001791   -10.073635    1.6093464   -1080.0737    583.90541   -1078.4643 
   55000          5.5   0.01881068    43.587985    50.001791   -10.245684    1.6093464   -1080.2457    583.90541   -1078.6364 
   60000            6  0.015126076    49.068834    50.001791   -10.132826    1.6093464   -1080.1328    583.90541   -1078.5235 
   65000          6.5 0.0094691672     47.64031    50.001791   -10.130018    1.6093464     -1080.13    583.90541   -1078.5207 
   70000            7 0.0071862867      47.0208    50.001791   -10.186691    1.6093464   -1080.1867    583.90541   -1078.5774 
   75000          7.5  0.011784247    45.289531    50.001791   -10.224414    1.6093464   -1080.2244    583.90541   -1078.6151 
   80000            8  0.019514741    50.885782    50.001791   -10.081367    1.6093464   -1080.0814    583.90541    -1078.472 
   85000          8.5 0.0093707809    46.446899    50.001791   -10.088616    1.6093464   -1080.0886    583.90541   -1078.4793 
   90000            9 0.0058757206    44.891062    50.001791    -10.17146    1.6093464   -1080.1715    583.90541   -1078.5621 
   95000          9.5  0.018994718    57.777901    50.001791   -9.8994026    1.6093464   -1079.8994    583.90541   -1078.2901 
  100000           10 0.0045366525    42.550224    50.001791   -10.182998    1.6093464    -1080.183    583.90541   -1078.5737 
Loop time of 75.846 on 8 procs for 100000 steps with 250 atoms

Performance: 11.392 ns/day, 2.107 hours/ns, 1318.461 timesteps/s
99.6% CPU use with 8 MPI tasks x no OpenMP threads

MPI task timing breakdown:
Section |  min time  |  avg time  |  max time  |%varavg| %total
---------------------------------------------------------------
Pair    | 7.5618     | 7.8806     | 8.7111     |  15.1 | 10.39
Neigh   | 0          | 0          | 0          |   0.0 |  0.00
Comm    | 3.4975     | 4.4669     | 4.8508     |  23.9 |  5.89
Output  | 2.2377     | 2.2379     | 2.2388     |   0.0 |  2.95
Modify  | 61.059     | 61.132     | 61.289     |   1.2 | 80.60
Other   |            | 0.129      |            |       |  0.17

Nlocal:    31.25 ave 35.0 max 30.0 min
Histogram: 6 0 0 0 0 0 0 0 0 2
Nghost:    654.75 ave 656.0 max 651.0 min
Histogram: 2 0 0 0 0 0 0 0 0 6
Neighs:    1000.0 ave 1120.0 max 960.0 min
Histogram: 6 0 0 0 0 0 0 0 0 2
FullNghs:  2000.0 ave 2240.0 max 1920.0 min
Histogram: 6 0 0 0 0 0 0 0 0 2

Total # of neighbors = 16000
Ave neighs/atom = 64.0
Neighbor list builds = 0
Dangerous builds = 0

Please see the log.cite file for references relevant to this simulation

Total wall time: 0:01:16
