LAMMPS (30 Jun 2020)
Lattice spacing in x,y,z = 2.8665 2.8665 2.8665
Created orthogonal box = (0.0 0.0 0.0) to (14.3325 14.3325 14.3325)
  2 by 2 by 2 MPI processor grid
Created 250 atoms
  create_atoms CPU = 0.148 seconds
Setting atom values ...
  250 settings made for spin
Neighbor list info ...
  update every 10 steps, delay 20 steps, check yes
  max neighbors/atom: 2000, page size: 100000
  master list distance cutoff = 5.7733670002446
  ghost atom cutoff = 5.7733670002446
  binsize = 2.8866835001223, bins = 5.0 5.0 5.0
  2 neighbor lists, perpetual/occasional/extra = 2 0 0
  (1) pair eam/alloy, perpetual, half/full from (2)
      attributes: half, newton on
      pair build: halffull/newton
      stencil: none
      bin: none
  (2) pair spin/exchange, perpetual
      attributes: full, newton on
      pair build: full/bin/atomonly
      stencil: full/bin/3d
      bin: standard
Setting up Verlet run ...
  Unit style    : metal
  Current step  : 0
  Time step     : 0.0001
Per MPI rank memory allocation (min/avg/max) = 7.742 | 7.742 | 7.742 Mbytes
Step Time v_magnorm v_tmag Temp v_emag KinEng PotEng Press TotEng 
       0            0            1            0    200.00716   -27.791345    6.4373858   -1097.7914    2335.4615    -1091.354 
    5000          0.5   0.91875249    174.00178    200.00716   -23.958311    6.4373858   -1093.9583    2335.4615   -1087.5209 
   10000            1   0.90889299    202.47227    200.00716   -23.415442    6.4373858   -1093.4155    2335.4615   -1086.9781 
   15000          1.5   0.91944032    176.45554    200.00716   -23.958223    6.4373858   -1093.9582    2335.4615   -1087.5209 
   20000            2   0.90295424    206.00969    200.00716   -23.246455    6.4373858   -1093.2465    2335.4615   -1086.8091 
   25000          2.5   0.90771945    190.27379    200.00716   -23.513928    6.4373858   -1093.5139    2335.4615   -1087.0766 
   30000            3   0.91352863    179.79912    200.00716   -23.808868    6.4373858   -1093.8089    2335.4615   -1087.3715 
   35000          3.5    0.8995234    201.86886    200.00716   -23.176311    6.4373858   -1093.1763    2335.4615   -1086.7389 
   40000            4   0.90468469    204.80746    200.00716   -23.309425    6.4373858   -1093.3094    2335.4615   -1086.8721 
   45000          4.5   0.91333554    180.13258    200.00716   -23.741195    6.4373858   -1093.7412    2335.4615   -1087.3038 
   50000            5   0.90353188    197.06087    200.00716   -23.414177    6.4373858   -1093.4142    2335.4615   -1086.9768 
   55000          5.5   0.89275672    221.45805    200.00716   -22.847511    6.4373858   -1092.8475    2335.4615   -1086.4101 
   60000            6   0.89025399     207.1891    200.00716   -22.965124    6.4373858   -1092.9651    2335.4615   -1086.5278 
   65000          6.5   0.90150201    210.96194    200.00716   -23.126721    6.4373858   -1093.1267    2335.4615   -1086.6894 
   70000            7    0.9082093    205.92708    200.00716   -23.291418    6.4373858   -1093.2914    2335.4615    -1086.854 
   75000          7.5   0.91588918    180.12765    200.00716   -23.797191    6.4373858   -1093.7972    2335.4615   -1087.3598 
   80000            8   0.89921989     205.6077    200.00716   -23.195117    6.4373858   -1093.1951    2335.4615   -1086.7577 
   85000          8.5   0.90481477    208.23631    200.00716   -23.175422    6.4373858   -1093.1754    2335.4615   -1086.7381 
   90000            9   0.90926709    199.42284    200.00716    -23.47956    6.4373858   -1093.4796    2335.4615   -1087.0422 
   95000          9.5   0.91486509    187.88273    200.00716   -23.671006    6.4373858    -1093.671    2335.4615   -1087.2336 
  100000           10    0.9095023    182.22556    200.00716   -23.690997    6.4373858    -1093.691    2335.4615   -1087.2536 
Loop time of 597.156 on 8 procs for 100000 steps with 250 atoms

Performance: 1.447 ns/day, 16.588 hours/ns, 167.460 timesteps/s
89.1% CPU use with 8 MPI tasks x no OpenMP threads

MPI task timing breakdown:
Section |  min time  |  avg time  |  max time  |%varavg| %total
---------------------------------------------------------------
Pair    | 35.378     | 35.983     | 37.12      |   9.1 |  6.03
Neigh   | 0          | 0          | 0          |   0.0 |  0.00
Comm    | 28.016     | 36.342     | 42.013     |  72.5 |  6.09
Output  | 0.91872    | 1.1051     | 1.3461     |  17.0 |  0.19
Modify  | 516.65     | 522.46     | 530.69     |  20.5 | 87.49
Other   |            | 1.262      |            |       |  0.21

Nlocal:    31.25 ave 35.0 max 30.0 min
Histogram: 6 0 0 0 0 0 0 0 0 2
Nghost:    654.75 ave 656.0 max 651.0 min
Histogram: 2 0 0 0 0 0 0 0 0 6
Neighs:    1000.0 ave 1120.0 max 960.0 min
Histogram: 6 0 0 0 0 0 0 0 0 2
FullNghs:  2000.0 ave 2240.0 max 1920.0 min
Histogram: 6 0 0 0 0 0 0 0 0 2

Total # of neighbors = 16000
Ave neighs/atom = 64.0
Neighbor list builds = 0
Dangerous builds = 0

Please see the log.cite file for references relevant to this simulation

Total wall time: 0:10:00
