LAMMPS (30 Jun 2020)
Lattice spacing in x,y,z = 2.8665 2.8665 2.8665
Created orthogonal box = (0.0 0.0 0.0) to (14.3325 14.3325 14.3325)
  2 by 2 by 2 MPI processor grid
Created 250 atoms
  create_atoms CPU = 0.001 seconds
Setting atom values ...
  250 settings made for spin
Neighbor list info ...
  update every 10 steps, delay 20 steps, check yes
  max neighbors/atom: 2000, page size: 100000
  master list distance cutoff = 5.7733670002446
  ghost atom cutoff = 5.7733670002446
  binsize = 2.8866835001223, bins = 5.0 5.0 5.0
  2 neighbor lists, perpetual/occasional/extra = 2 0 0
  (1) pair eam/alloy, perpetual, half/full from (2)
      attributes: half, newton on
      pair build: halffull/newton
      stencil: none
      bin: none
  (2) pair spin/exchange, perpetual
      attributes: full, newton on
      pair build: full/bin/atomonly
      stencil: full/bin/3d
      bin: standard
Setting up Verlet run ...
  Unit style    : metal
  Current step  : 0
  Time step     : 0.0001
Per MPI rank memory allocation (min/avg/max) = 7.742 | 7.742 | 7.742 Mbytes
Step Time v_magnorm v_tmag Temp v_emag KinEng PotEng Press TotEng 
       0            0            1            0    250.00895   -27.791345    8.0467322   -1097.7914    2919.3135   -1089.7446 
    5000          0.5   0.89251588    223.51494    250.00895   -22.804839    8.0467322   -1092.8049    2919.3135   -1084.7581 
   10000            1   0.87430072    266.50108    250.00895   -21.815093    8.0467322   -1091.8151    2919.3135   -1083.7684 
   15000          1.5   0.87094468    267.21258    250.00895     -21.7274    8.0467322   -1091.7274    2919.3135   -1083.6807 
   20000            2   0.87114885    275.56216    250.00895   -21.679832    8.0467322   -1091.6798    2919.3135   -1083.6331 
   25000          2.5   0.87913159    250.42615    250.00895   -22.185614    8.0467322   -1092.1856    2919.3135   -1084.1389 
   30000            3   0.88356427    231.55944    250.00895   -22.456078    8.0467322   -1092.4561    2919.3135   -1084.4094 
   35000          3.5   0.87629792    261.40212    250.00895   -21.982222    8.0467322   -1091.9822    2919.3135   -1083.9355 
   40000            4   0.87184786    260.93949    250.00895   -21.870987    8.0467322    -1091.871    2919.3135   -1083.8243 
   45000          4.5   0.87383383    238.99077    250.00895   -22.255535    8.0467322   -1092.2556    2919.3135   -1084.2088 
   50000            5   0.87045945    255.59845    250.00895   -21.999938    8.0467322        -1092    2919.3135   -1083.9532 
   55000          5.5   0.86839928    243.97795    250.00895   -22.092275    8.0467322   -1092.0923    2919.3135   -1084.0456 
   60000            6   0.86208896    256.50091    250.00895   -21.805738    8.0467322   -1091.8058    2919.3135    -1083.759 
   65000          6.5   0.86584948    264.29025    250.00895   -21.814675    8.0467322   -1091.8147    2919.3135    -1083.768 
   70000            7   0.88012096     238.6884    250.00895   -22.472818    8.0467322   -1092.4728    2919.3135   -1084.4261 
   75000          7.5   0.88264164    219.08042    250.00895   -22.645158    8.0467322   -1092.6452    2919.3135   -1084.5984 
   80000            8   0.85086574     281.3538    250.00895   -21.353937    8.0467322    -1091.354    2919.3135   -1083.3072 
   85000          8.5   0.84975082    270.10968    250.00895   -21.433214    8.0467322   -1091.4332    2919.3135   -1083.3865 
   90000            9   0.86210065     240.5375    250.00895   -22.125588    8.0467322   -1092.1256    2919.3135   -1084.0789 
   95000          9.5   0.87940882    250.07909    250.00895   -22.149462    8.0467322   -1092.1495    2919.3135   -1084.1027 
  100000           10   0.86646062    258.36222    250.00895   -21.944151    8.0467322   -1091.9442    2919.3135   -1083.8974 
Loop time of 63.1871 on 8 procs for 100000 steps with 250 atoms

Performance: 13.674 ns/day, 1.755 hours/ns, 1582.602 timesteps/s
100.0% CPU use with 8 MPI tasks x no OpenMP threads

MPI task timing breakdown:
Section |  min time  |  avg time  |  max time  |%varavg| %total
---------------------------------------------------------------
Pair    | 7.4888     | 7.7961     | 8.6221     |  15.6 | 12.34
Neigh   | 0          | 0          | 0          |   0.0 |  0.00
Comm    | 2.9203     | 3.9173     | 4.2882     |  26.4 |  6.20
Output  | 0.063917   | 0.079593   | 0.10467    |   5.9 |  0.13
Modify  | 51.199     | 51.268     | 51.433     |   1.2 | 81.14
Other   |            | 0.1262     |            |       |  0.20

Nlocal:    31.25 ave 35.0 max 30.0 min
Histogram: 6 0 0 0 0 0 0 0 0 2
Nghost:    654.75 ave 656.0 max 651.0 min
Histogram: 2 0 0 0 0 0 0 0 0 6
Neighs:    1000.0 ave 1120.0 max 960.0 min
Histogram: 6 0 0 0 0 0 0 0 0 2
FullNghs:  2000.0 ave 2240.0 max 1920.0 min
Histogram: 6 0 0 0 0 0 0 0 0 2

Total # of neighbors = 16000
Ave neighs/atom = 64.0
Neighbor list builds = 0
Dangerous builds = 0

Please see the log.cite file for references relevant to this simulation

Total wall time: 0:01:03
