LAMMPS (30 Jun 2020)
Lattice spacing in x,y,z = 2.8665 2.8665 2.8665
Created orthogonal box = (0.0 0.0 0.0) to (14.3325 14.3325 14.3325)
  2 by 2 by 2 MPI processor grid
Created 250 atoms
  create_atoms CPU = 0.000 seconds
Setting atom values ...
  250 settings made for spin
Neighbor list info ...
  update every 10 steps, delay 20 steps, check yes
  max neighbors/atom: 2000, page size: 100000
  master list distance cutoff = 5.7733670002446
  ghost atom cutoff = 5.7733670002446
  binsize = 2.8866835001223, bins = 5.0 5.0 5.0
  2 neighbor lists, perpetual/occasional/extra = 2 0 0
  (1) pair eam/alloy, perpetual, half/full from (2)
      attributes: half, newton on
      pair build: halffull/newton
      stencil: none
      bin: none
  (2) pair spin/exchange, perpetual
      attributes: full, newton on
      pair build: full/bin/atomonly
      stencil: full/bin/3d
      bin: standard
Setting up Verlet run ...
  Unit style    : metal
  Current step  : 0
  Time step     : 0.0001
Per MPI rank memory allocation (min/avg/max) = 7.742 | 7.742 | 7.742 Mbytes
Step Time v_magnorm v_tmag Temp v_emag KinEng PotEng Press TotEng 
       0            0            1            0    300.01074   -27.791345    9.6560786   -1097.7914    3503.1655   -1088.1353 
    5000          0.5   0.86922181    261.99915    300.01074   -21.780597    9.6560786   -1091.7806    3503.1655   -1082.1245 
   10000            1   0.86451051    293.49444    300.01074   -21.281425    9.6560786   -1091.2814    3503.1655   -1081.6254 
   15000          1.5   0.85203293    304.73513    300.01074   -20.874651    9.6560786   -1090.8747    3503.1655   -1081.2186 
   20000            2   0.83474023    306.06435    300.01074   -20.537578    9.6560786   -1090.5376    3503.1655   -1080.8815 
   25000          2.5   0.84895143    314.66137    300.01074   -20.699091    9.6560786   -1090.6991    3503.1655    -1081.043 
   30000            3   0.85164468    282.19447    300.01074   -21.220996    9.6560786    -1091.221    3503.1655   -1081.5649 
   35000          3.5   0.85804823    291.63848    300.01074   -21.171842    9.6560786   -1091.1719    3503.1655   -1081.5158 
   40000            4   0.85279295    290.14651    300.01074   -21.110567    9.6560786   -1091.1106    3503.1655   -1081.4545 
   45000          4.5   0.84662951    292.02527    300.01074   -20.996754    9.6560786   -1090.9968    3503.1655   -1081.3407 
   50000            5   0.84251412    304.25286    300.01074   -20.735976    9.6560786    -1090.736    3503.1655   -1081.0799 
   55000          5.5   0.84962343    280.29465    300.01074   -21.209713    9.6560786   -1091.2097    3503.1655   -1081.5537 
   60000            6   0.86004285    281.02866    300.01074    -21.42022    9.6560786   -1091.4202    3503.1655   -1081.7642 
   65000          6.5     0.848403    301.97555    300.01074   -20.870736    9.6560786   -1090.8708    3503.1655   -1081.2147 
   70000            7   0.84458008    292.18715    300.01074   -20.978738    9.6560786   -1090.9788    3503.1655   -1081.3227 
   75000          7.5   0.85847779    279.50768    300.01074   -21.493211    9.6560786   -1091.4932    3503.1655   -1081.8372 
   80000            8   0.83025873    341.81106    300.01074   -20.166588    9.6560786   -1090.1666    3503.1655   -1080.5105 
   85000          8.5   0.82741162    329.81088    300.01074   -20.154555    9.6560786   -1090.1546    3503.1655   -1080.4985 
   90000            9    0.8441249     308.5949    300.01074   -20.831096    9.6560786   -1090.8311    3503.1655    -1081.175 
   95000          9.5   0.84403724    307.60769    300.01074   -20.836788    9.6560786   -1090.8368    3503.1655   -1081.1807 
  100000           10   0.85615052    293.34676    300.01074   -21.137148    9.6560786   -1091.1372    3503.1655   -1081.4811 
Loop time of 80.4731 on 8 procs for 100000 steps with 250 atoms

Performance: 10.737 ns/day, 2.235 hours/ns, 1242.651 timesteps/s
100.0% CPU use with 8 MPI tasks x no OpenMP threads

MPI task timing breakdown:
Section |  min time  |  avg time  |  max time  |%varavg| %total
---------------------------------------------------------------
Pair    | 7.8404     | 8.2598     | 9.2363     |  16.0 | 10.26
Neigh   | 0          | 0          | 0          |   0.0 |  0.00
Comm    | 3.693      | 4.6967     | 5.1611     |  24.4 |  5.84
Output  | 0.062616   | 0.094021   | 0.14354    |  11.6 |  0.12
Modify  | 66.948     | 67.274     | 67.542     |   2.8 | 83.60
Other   |            | 0.1491     |            |       |  0.19

Nlocal:    31.25 ave 35.0 max 30.0 min
Histogram: 6 0 0 0 0 0 0 0 0 2
Nghost:    654.75 ave 656.0 max 651.0 min
Histogram: 2 0 0 0 0 0 0 0 0 6
Neighs:    1000.0 ave 1120.0 max 960.0 min
Histogram: 6 0 0 0 0 0 0 0 0 2
FullNghs:  2000.0 ave 2240.0 max 1920.0 min
Histogram: 6 0 0 0 0 0 0 0 0 2

Total # of neighbors = 16000
Ave neighs/atom = 64.0
Neighbor list builds = 0
Dangerous builds = 0

Please see the log.cite file for references relevant to this simulation

Total wall time: 0:01:20
