LAMMPS (30 Jun 2020)
Lattice spacing in x,y,z = 2.8665 2.8665 2.8665
Created orthogonal box = (0.0 0.0 0.0) to (14.3325 14.3325 14.3325)
  2 by 2 by 2 MPI processor grid
Created 250 atoms
  create_atoms CPU = 0.000 seconds
Setting atom values ...
  250 settings made for spin
Neighbor list info ...
  update every 10 steps, delay 20 steps, check yes
  max neighbors/atom: 2000, page size: 100000
  master list distance cutoff = 5.7733670002446
  ghost atom cutoff = 5.7733670002446
  binsize = 2.8866835001223, bins = 5.0 5.0 5.0
  2 neighbor lists, perpetual/occasional/extra = 2 0 0
  (1) pair eam/alloy, perpetual, half/full from (2)
      attributes: half, newton on
      pair build: halffull/newton
      stencil: none
      bin: none
  (2) pair spin/exchange, perpetual
      attributes: full, newton on
      pair build: full/bin/atomonly
      stencil: full/bin/3d
      bin: standard
Setting up Verlet run ...
  Unit style    : metal
  Current step  : 0
  Time step     : 0.0001
Per MPI rank memory allocation (min/avg/max) = 7.742 | 7.742 | 7.742 Mbytes
Step Time v_magnorm v_tmag Temp v_emag KinEng PotEng Press TotEng 
       0            0            1            0    350.01253   -27.791345    11.265425   -1097.7914    4087.0176   -1086.5259 
    5000          0.5   0.83677836    324.67873    350.01253   -20.189662    11.265425   -1090.1897    4087.0176   -1078.9243 
   10000            1   0.84422144    343.28366    350.01253   -20.292872    11.265425   -1090.2929    4087.0176   -1079.0275 
   15000          1.5   0.82945183    353.67282    350.01253   -19.856806    11.265425   -1089.8568    4087.0176   -1078.5914 
   20000            2   0.81137043    367.78323    350.01253   -19.241094    11.265425   -1089.2411    4087.0176   -1077.9757 
   25000          2.5   0.79705662    384.09227    350.01253   -18.777403    11.265425   -1088.7774    4087.0176    -1077.512 
   30000            3   0.81176178    328.49918    350.01253   -19.962661    11.265425   -1089.9627    4087.0176   -1078.6973 
   35000          3.5   0.81275109    364.99144    350.01253   -19.464089    11.265425   -1089.4641    4087.0176   -1078.1987 
   40000            4   0.80530238    352.95672    350.01253   -19.364125    11.265425   -1089.3641    4087.0176   -1078.0987 
   45000          4.5   0.81453662    358.64549    350.01253   -19.530738    11.265425   -1089.5308    4087.0176   -1078.2653 
   50000            5   0.79851867    384.62873    350.01253   -18.875607    11.265425   -1088.8756    4087.0176   -1077.6102 
   55000          5.5   0.79794888    375.83553    350.01253    -18.71061    11.265425   -1088.7106    4087.0176   -1077.4452 
   60000            6   0.78800779    363.72929    350.01253   -18.912701    11.265425   -1088.9127    4087.0176   -1077.6473 
   65000          6.5   0.81139138    336.80522    350.01253   -19.584491    11.265425   -1089.5845    4087.0176   -1078.3191 
   70000            7   0.78890361    395.40769    350.01253    -18.41668    11.265425   -1088.4167    4087.0176   -1077.1513 
   75000          7.5    0.8191393    338.91762    350.01253   -19.871171    11.265425   -1089.8712    4087.0176   -1078.6058 
   80000            8   0.81467283    347.86663    350.01253   -19.542921    11.265425   -1089.5429    4087.0176   -1078.2775 
   85000          8.5   0.81390345    341.16906    350.01253    -19.76218    11.265425   -1089.7622    4087.0176   -1078.4968 
   90000            9   0.81378904    370.04396    350.01253   -19.235561    11.265425   -1089.2356    4087.0176   -1077.9702 
   95000          9.5   0.82764835    358.02296    350.01253   -19.757284    11.265425   -1089.7573    4087.0176   -1078.4919 
  100000           10    0.8107654     347.6985    350.01253    -19.49989    11.265425   -1089.4999    4087.0176   -1078.2345 
Loop time of 85.9506 on 8 procs for 100000 steps with 250 atoms

Performance: 10.052 ns/day, 2.388 hours/ns, 1163.459 timesteps/s
99.9% CPU use with 8 MPI tasks x no OpenMP threads

MPI task timing breakdown:
Section |  min time  |  avg time  |  max time  |%varavg| %total
---------------------------------------------------------------
Pair    | 7.6651     | 8.0057     | 8.8512     |  15.7 |  9.31
Neigh   | 0          | 0          | 0          |   0.0 |  0.00
Comm    | 4.0869     | 5.0715     | 5.4685     |  23.5 |  5.90
Output  | 0.064832   | 0.073655   | 0.086781   |   2.8 |  0.09
Modify  | 72.574     | 72.661     | 72.821     |   1.0 | 84.54
Other   |            | 0.1388     |            |       |  0.16

Nlocal:    31.25 ave 35.0 max 30.0 min
Histogram: 6 0 0 0 0 0 0 0 0 2
Nghost:    654.75 ave 656.0 max 651.0 min
Histogram: 2 0 0 0 0 0 0 0 0 6
Neighs:    1000.0 ave 1120.0 max 960.0 min
Histogram: 6 0 0 0 0 0 0 0 0 2
FullNghs:  2000.0 ave 2240.0 max 1920.0 min
Histogram: 6 0 0 0 0 0 0 0 0 2

Total # of neighbors = 16000
Ave neighs/atom = 64.0
Neighbor list builds = 0
Dangerous builds = 0

Please see the log.cite file for references relevant to this simulation

Total wall time: 0:01:25
