LAMMPS (30 Jun 2020)
Lattice spacing in x,y,z = 2.8665 2.8665 2.8665
Created orthogonal box = (0.0 0.0 0.0) to (14.3325 14.3325 14.3325)
  2 by 2 by 2 MPI processor grid
Created 250 atoms
  create_atoms CPU = 0.000 seconds
Setting atom values ...
  250 settings made for spin
Neighbor list info ...
  update every 10 steps, delay 20 steps, check yes
  max neighbors/atom: 2000, page size: 100000
  master list distance cutoff = 5.7733670002446
  ghost atom cutoff = 5.7733670002446
  binsize = 2.8866835001223, bins = 5.0 5.0 5.0
  2 neighbor lists, perpetual/occasional/extra = 2 0 0
  (1) pair eam/alloy, perpetual, half/full from (2)
      attributes: half, newton on
      pair build: halffull/newton
      stencil: none
      bin: none
  (2) pair spin/exchange, perpetual
      attributes: full, newton on
      pair build: full/bin/atomonly
      stencil: full/bin/3d
      bin: standard
Setting up Verlet run ...
  Unit style    : metal
  Current step  : 0
  Time step     : 0.0001
Per MPI rank memory allocation (min/avg/max) = 7.742 | 7.742 | 7.742 Mbytes
Step Time v_magnorm v_tmag Temp v_emag KinEng PotEng Press TotEng 
       0            0            1            0    400.01433   -27.791345    12.874772   -1097.7914    4670.8696   -1084.9166 
    5000          0.5   0.82509274    356.67191    400.01433     -19.5973    12.874772   -1089.5973    4670.8696   -1076.7225 
   10000            1   0.81836561    379.73129    400.01433    -19.12709    12.874772   -1089.1271    4670.8696   -1076.2523 
   15000          1.5   0.80751343     362.6706    400.01433   -19.152128    12.874772   -1089.1521    4670.8696   -1076.2774 
   20000            2   0.80939803    377.38504    400.01433   -18.973796    12.874772   -1088.9738    4670.8696    -1076.099 
   25000          2.5    0.7987905     398.5277    400.01433   -18.556131    12.874772   -1088.5561    4670.8696   -1075.6814 
   30000            3   0.78715863    384.55462    400.01433   -18.539508    12.874772   -1088.5395    4670.8696   -1075.6648 
   35000          3.5   0.77130489    405.69772    400.01433   -17.823194    12.874772   -1087.8232    4670.8696   -1074.9484 
   40000            4   0.79292875    397.54591    400.01433    -18.42825    12.874772   -1088.4283    4670.8696   -1075.5535 
   45000          4.5   0.79801695    387.70726    400.01433   -18.748077    12.874772   -1088.7481    4670.8696   -1075.8733 
   50000            5   0.78232325    410.52306    400.01433   -18.225217    12.874772   -1088.2252    4670.8696   -1075.3505 
   55000          5.5   0.77659414      386.128    400.01433   -18.398886    12.874772   -1088.3989    4670.8696   -1075.5241 
   60000            6   0.77960804    368.84729    400.01433   -18.822292    12.874772   -1088.8223    4670.8696   -1075.9475 
   65000          6.5   0.74272049    393.81162    400.01433   -17.744376    12.874772   -1087.7444    4670.8696   -1074.8696 
   70000            7   0.76297326    385.55299    400.01433   -18.164145    12.874772   -1088.1642    4670.8696   -1075.2894 
   75000          7.5   0.75885419    406.88327    400.01433   -17.680225    12.874772   -1087.6802    4670.8696   -1074.8055 
   80000            8   0.78216862    376.60471    400.01433   -18.520127    12.874772   -1088.5201    4670.8696   -1075.6454 
   85000          8.5   0.75208795    413.73512    400.01433   -17.397751    12.874772   -1087.3978    4670.8696    -1074.523 
   90000            9   0.77623424    387.81486    400.01433   -18.202313    12.874772   -1088.2023    4670.8696   -1075.3276 
   95000          9.5   0.78368675    402.85221    400.01433      -18.179    12.874772    -1088.179    4670.8696   -1075.3042 
  100000           10   0.77426458    368.68458    400.01433   -18.614072    12.874772   -1088.6141    4670.8696   -1075.7393 
Loop time of 96.8895 on 8 procs for 100000 steps with 250 atoms

Performance: 8.917 ns/day, 2.691 hours/ns, 1032.104 timesteps/s
100.0% CPU use with 8 MPI tasks x no OpenMP threads

MPI task timing breakdown:
Section |  min time  |  avg time  |  max time  |%varavg| %total
---------------------------------------------------------------
Pair    | 8.1602     | 8.6348     | 9.475      |  16.2 |  8.91
Neigh   | 0          | 0          | 0          |   0.0 |  0.00
Comm    | 4.5308     | 5.5675     | 6.0554     |  22.8 |  5.75
Output  | 0.073732   | 0.10676    | 0.1583     |  10.9 |  0.11
Modify  | 82.001     | 82.429     | 82.738     |   2.4 | 85.08
Other   |            | 0.1516     |            |       |  0.16

Nlocal:    31.25 ave 35.0 max 30.0 min
Histogram: 6 0 0 0 0 0 0 0 0 2
Nghost:    654.75 ave 656.0 max 651.0 min
Histogram: 2 0 0 0 0 0 0 0 0 6
Neighs:    1000.0 ave 1120.0 max 960.0 min
Histogram: 6 0 0 0 0 0 0 0 0 2
FullNghs:  2000.0 ave 2240.0 max 1920.0 min
Histogram: 6 0 0 0 0 0 0 0 0 2

Total # of neighbors = 16000
Ave neighs/atom = 64.0
Neighbor list builds = 0
Dangerous builds = 0

Please see the log.cite file for references relevant to this simulation

Total wall time: 0:01:36
