LAMMPS (30 Jun 2020)
Lattice spacing in x,y,z = 2.8665 2.8665 2.8665
Created orthogonal box = (0.0 0.0 0.0) to (14.3325 14.3325 14.3325)
  2 by 2 by 2 MPI processor grid
Created 250 atoms
  create_atoms CPU = 0.000 seconds
Setting atom values ...
  250 settings made for spin
Neighbor list info ...
  update every 10 steps, delay 20 steps, check yes
  max neighbors/atom: 2000, page size: 100000
  master list distance cutoff = 5.7733670002446
  ghost atom cutoff = 5.7733670002446
  binsize = 2.8866835001223, bins = 5.0 5.0 5.0
  2 neighbor lists, perpetual/occasional/extra = 2 0 0
  (1) pair eam/alloy, perpetual, half/full from (2)
      attributes: half, newton on
      pair build: halffull/newton
      stencil: none
      bin: none
  (2) pair spin/exchange, perpetual
      attributes: full, newton on
      pair build: full/bin/atomonly
      stencil: full/bin/3d
      bin: standard
Setting up Verlet run ...
  Unit style    : metal
  Current step  : 0
  Time step     : 0.0001
Per MPI rank memory allocation (min/avg/max) = 7.742 | 7.742 | 7.742 Mbytes
Step Time v_magnorm v_tmag Temp v_emag KinEng PotEng Press TotEng 
       0            0            1            0    500.01791   -27.791345    16.093464   -1097.7914    5838.5736   -1081.6979 
    5000          0.5   0.78375126    427.14119    500.01791   -17.897415    16.093464   -1087.8974    5838.5736    -1071.804 
   10000            1   0.75476146    444.87145    500.01791   -17.044814    16.093464   -1087.0448    5838.5736   -1070.9514 
   15000          1.5   0.68741861    511.69317    500.01791   -14.786895    16.093464   -1084.7869    5838.5736   -1068.6934 
   20000            2   0.64870863      510.314    500.01791   -14.324159    16.093464   -1084.3242    5838.5736   -1068.2307 
   25000          2.5   0.64286104    495.15208    500.01791   -14.422028    16.093464    -1084.422    5838.5736   -1068.3286 
   30000            3   0.60161555    571.32258    500.01791   -13.188136    16.093464   -1083.1882    5838.5736   -1067.0947 
   35000          3.5   0.64480183    520.21973    500.01791   -14.258989    16.093464    -1084.259    5838.5736   -1068.1655 
   40000            4   0.65298828    542.91204    500.01791   -13.643362    16.093464   -1083.6434    5838.5736   -1067.5499 
   45000          4.5    0.6543473    566.04677    500.01791   -13.454573    16.093464   -1083.4546    5838.5736   -1067.3611 
   50000            5   0.67491989    518.92926    500.01791   -14.564261    16.093464   -1084.5643    5838.5736   -1068.4708 
   55000          5.5   0.73021517    473.08263    500.01791   -16.354236    16.093464   -1086.3543    5838.5736   -1070.2608 
   60000            6     0.685891    475.29638    500.01791   -15.593268    16.093464   -1085.5933    5838.5736   -1069.4998 
   65000          6.5   0.69774991    473.03533    500.01791   -15.468287    16.093464   -1085.4683    5838.5736   -1069.3748 
   70000            7   0.68592079    528.16612    500.01791   -14.913281    16.093464   -1084.9133    5838.5736   -1068.8198 
   75000          7.5   0.70019096    484.32042    500.01791   -15.389846    16.093464   -1085.3899    5838.5736   -1069.2964 
   80000            8   0.68325766    539.25777    500.01791   -14.582077    16.093464   -1084.5821    5838.5736   -1068.4886 
   85000          8.5   0.66537852     553.7927    500.01791   -13.999804    16.093464   -1083.9998    5838.5736   -1067.9064 
   90000            9   0.68619097    538.49912    500.01791   -14.496995    16.093464    -1084.497    5838.5736   -1068.4035 
   95000          9.5   0.74509685    466.99556    500.01791   -16.391368    16.093464   -1086.3914    5838.5736   -1070.2979 
  100000           10   0.73981478    462.49895    500.01791     -16.2779    16.093464   -1086.2779    5838.5736   -1070.1845 
Loop time of 93.8925 on 8 procs for 100000 steps with 250 atoms

Performance: 9.202 ns/day, 2.608 hours/ns, 1065.048 timesteps/s
100.0% CPU use with 8 MPI tasks x no OpenMP threads

MPI task timing breakdown:
Section |  min time  |  avg time  |  max time  |%varavg| %total
---------------------------------------------------------------
Pair    | 7.7577     | 8.0942     | 8.8657     |  14.0 |  8.62
Neigh   | 0          | 0          | 0          |   0.0 |  0.00
Comm    | 4.5909     | 5.5865     | 6.0742     |  21.0 |  5.95
Output  | 0.062643   | 0.08742    | 0.12682    |   9.1 |  0.09
Modify  | 79.594     | 79.981     | 80.188     |   1.9 | 85.18
Other   |            | 0.1434     |            |       |  0.15

Nlocal:    31.25 ave 35.0 max 30.0 min
Histogram: 6 0 0 0 0 0 0 0 0 2
Nghost:    654.75 ave 656.0 max 651.0 min
Histogram: 2 0 0 0 0 0 0 0 0 6
Neighs:    1000.0 ave 1120.0 max 960.0 min
Histogram: 6 0 0 0 0 0 0 0 0 2
FullNghs:  2000.0 ave 2240.0 max 1920.0 min
Histogram: 6 0 0 0 0 0 0 0 0 2

Total # of neighbors = 16000
Ave neighs/atom = 64.0
Neighbor list builds = 0
Dangerous builds = 0

Please see the log.cite file for references relevant to this simulation

Total wall time: 0:01:33
