LAMMPS (30 Jun 2020)
Lattice spacing in x,y,z = 2.8665 2.8665 2.8665
Created orthogonal box = (0.0 0.0 0.0) to (14.3325 14.3325 14.3325)
  2 by 2 by 2 MPI processor grid
Created 250 atoms
  create_atoms CPU = 0.000 seconds
Setting atom values ...
  250 settings made for spin
Neighbor list info ...
  update every 10 steps, delay 20 steps, check yes
  max neighbors/atom: 2000, page size: 100000
  master list distance cutoff = 5.7733670002446
  ghost atom cutoff = 5.7733670002446
  binsize = 2.8866835001223, bins = 5.0 5.0 5.0
  2 neighbor lists, perpetual/occasional/extra = 2 0 0
  (1) pair eam/alloy, perpetual, half/full from (2)
      attributes: half, newton on
      pair build: halffull/newton
      stencil: none
      bin: none
  (2) pair spin/exchange, perpetual
      attributes: full, newton on
      pair build: full/bin/atomonly
      stencil: full/bin/3d
      bin: standard
Setting up Verlet run ...
  Unit style    : metal
  Current step  : 0
  Time step     : 0.0001
Per MPI rank memory allocation (min/avg/max) = 7.742 | 7.742 | 7.742 Mbytes
Step Time v_magnorm v_tmag Temp v_emag KinEng PotEng Press TotEng 
       0            0            1            0    600.02149   -27.791345    19.312157   -1097.7914    7006.2777   -1078.4792 
    5000          0.5   0.70304192    544.68171    600.02149    -14.56918    19.312157   -1084.5692    7006.2777    -1065.257 
   10000            1   0.71071489    484.34403    600.02149   -15.587874    19.312157   -1085.5879    7006.2777   -1066.2757 
   15000          1.5   0.59432874    569.67788    600.02149   -12.009542    19.312157   -1082.0096    7006.2777   -1062.6974 
   20000            2    0.6308274    559.33971    600.02149   -12.874023    19.312157    -1082.874    7006.2777   -1063.5619 
   25000          2.5   0.58392009    654.53927    600.02149    -10.41567    19.312157   -1080.4157    7006.2777   -1061.1035 
   30000            3   0.60064478    523.48935    600.02149   -12.321983    19.312157    -1082.322    7006.2777   -1063.0098 
   35000          3.5   0.55001385    593.47754    600.02149   -10.674627    19.312157   -1080.6746    7006.2777   -1061.3625 
   40000            4   0.56624431    574.15821    600.02149   -11.439995    19.312157     -1081.44    7006.2777   -1062.1279 
   45000          4.5   0.57777497    590.71007    600.02149   -11.580785    19.312157   -1081.5808    7006.2777   -1062.2686 
   50000            5   0.59303475    566.28532    600.02149    -12.82033    19.312157   -1082.8203    7006.2777   -1063.5082 
   55000          5.5   0.55858134    636.29366    600.02149   -10.922073    19.312157   -1080.9221    7006.2777   -1061.6099 
   60000            6   0.55747909    624.00332    600.02149   -10.954386    19.312157   -1080.9544    7006.2777   -1061.6422 
   65000          6.5    0.5783883    577.10708    600.02149   -12.075048    19.312157   -1082.0751    7006.2777   -1062.7629 
   70000            7   0.53846524    643.59579    600.02149   -10.258177    19.312157   -1080.2582    7006.2777    -1060.946 
   75000          7.5   0.52747056    556.22818    600.02149   -11.204454    19.312157   -1081.2045    7006.2777   -1061.8923 
   80000            8   0.49473393    546.85929    600.02149   -10.188358    19.312157   -1080.1884    7006.2777   -1060.8762 
   85000          8.5    0.5320054    501.71587    600.02149   -12.230012    19.312157     -1082.23    7006.2777   -1062.9179 
   90000            9   0.47986576    566.28404    600.02149   -9.7899067    19.312157   -1079.7899    7006.2777   -1060.4778 
   95000          9.5   0.48216407    626.91773    600.02149   -9.6786786    19.312157   -1079.6787    7006.2777   -1060.3665 
  100000           10   0.42676701     692.2999    600.02149   -8.3045645    19.312157   -1078.3046    7006.2777   -1058.9924 
Loop time of 67.1926 on 8 procs for 100000 steps with 250 atoms

Performance: 12.859 ns/day, 1.866 hours/ns, 1488.259 timesteps/s
99.0% CPU use with 8 MPI tasks x no OpenMP threads

MPI task timing breakdown:
Section |  min time  |  avg time  |  max time  |%varavg| %total
---------------------------------------------------------------
Pair    | 7.6114     | 7.9683     | 8.7925     |  16.6 | 11.86
Neigh   | 0          | 0          | 0          |   0.0 |  0.00
Comm    | 3.4738     | 4.4273     | 4.8654     |  26.0 |  6.59
Output  | 0.078105   | 0.086656   | 0.10058    |   2.7 |  0.13
Modify  | 54.488     | 54.576     | 54.728     |   1.2 | 81.22
Other   |            | 0.1345     |            |       |  0.20

Nlocal:    31.25 ave 35.0 max 30.0 min
Histogram: 6 0 0 0 0 0 0 0 0 2
Nghost:    654.75 ave 656.0 max 651.0 min
Histogram: 2 0 0 0 0 0 0 0 0 6
Neighs:    1000.0 ave 1120.0 max 960.0 min
Histogram: 6 0 0 0 0 0 0 0 0 2
FullNghs:  2000.0 ave 2240.0 max 1920.0 min
Histogram: 6 0 0 0 0 0 0 0 0 2

Total # of neighbors = 16000
Ave neighs/atom = 64.0
Neighbor list builds = 0
Dangerous builds = 0

Please see the log.cite file for references relevant to this simulation

Total wall time: 0:01:07
