LAMMPS (30 Jun 2020)
Lattice spacing in x,y,z = 2.8665 2.8665 2.8665
Created orthogonal box = (0.0 0.0 0.0) to (14.3325 14.3325 14.3325)
  2 by 2 by 2 MPI processor grid
Created 250 atoms
  create_atoms CPU = 0.000 seconds
Setting atom values ...
  250 settings made for spin
Neighbor list info ...
  update every 10 steps, delay 20 steps, check yes
  max neighbors/atom: 2000, page size: 100000
  master list distance cutoff = 5.7733670002446
  ghost atom cutoff = 5.7733670002446
  binsize = 2.8866835001223, bins = 5.0 5.0 5.0
  2 neighbor lists, perpetual/occasional/extra = 2 0 0
  (1) pair eam/alloy, perpetual, half/full from (2)
      attributes: half, newton on
      pair build: halffull/newton
      stencil: none
      bin: none
  (2) pair spin/exchange, perpetual
      attributes: full, newton on
      pair build: full/bin/atomonly
      stencil: full/bin/3d
      bin: standard
Setting up Verlet run ...
  Unit style    : metal
  Current step  : 0
  Time step     : 0.0001
Per MPI rank memory allocation (min/avg/max) = 7.742 | 7.742 | 7.742 Mbytes
Step Time v_magnorm v_tmag Temp v_emag KinEng PotEng Press TotEng 
       0            0            1            0    700.02507   -27.791345     22.53085   -1097.7914    8173.9817   -1075.2605 
    5000          0.5   0.63633125    638.31972    700.02507   -12.150801     22.53085   -1082.1508    8173.9817     -1059.62 
   10000            1   0.58413515      639.467    700.02507   -11.148616     22.53085   -1081.1486    8173.9817   -1058.6178 
   15000          1.5    0.5343262    647.40055    700.02507   -9.5659073     22.53085   -1079.5659    8173.9817   -1057.0351 
   20000            2   0.52992158    742.45801    700.02507    -8.921291     22.53085   -1078.9213    8173.9817   -1056.3905 
   25000          2.5   0.48251052    616.90997    700.02507   -9.3451654     22.53085   -1079.3452    8173.9817   -1056.8143 
   30000            3   0.38739105    691.61906    700.02507   -7.7649951     22.53085    -1077.765    8173.9817   -1055.2342 
   35000          3.5   0.31125514    735.91461    700.02507   -5.9420309     22.53085    -1075.942    8173.9817   -1053.4112 
   40000            4   0.23674039    702.89857    700.02507   -5.4413677     22.53085   -1075.4414    8173.9817   -1052.9105 
   45000          4.5   0.21179604    777.84221    700.02507    -4.102654     22.53085   -1074.1027    8173.9817   -1051.5718 
   50000            5   0.28684497    717.42927    700.02507   -5.4783743     22.53085   -1075.4784    8173.9817   -1052.9475 
   55000          5.5   0.41332966    716.25018    700.02507   -7.2458616     22.53085   -1077.2459    8173.9817    -1054.715 
   60000            6   0.46847672     673.7628    700.02507   -8.3487688     22.53085   -1078.3488    8173.9817   -1055.8179 
   65000          6.5   0.41502054    739.40778    700.02507   -7.1048027     22.53085   -1077.1048    8173.9817    -1054.574 
   70000            7   0.39206813    656.01195    700.02507   -7.7336707     22.53085   -1077.7337    8173.9817   -1055.2028 
   75000          7.5   0.37451836     643.2563    700.02507   -7.8930907     22.53085   -1077.8931    8173.9817   -1055.3623 
   80000            8   0.40172593    656.67355    700.02507   -7.8816393     22.53085   -1077.8817    8173.9817   -1055.3508 
   85000          8.5   0.43195369    709.19634    700.02507   -7.2465849     22.53085   -1077.2466    8173.9817   -1054.7158 
   90000            9   0.43038844    695.35619    700.02507   -8.0369767     22.53085    -1078.037    8173.9817   -1055.5061 
   95000          9.5   0.41567564    671.87757    700.02507   -7.9974051     22.53085   -1077.9974    8173.9817   -1055.4666 
  100000           10   0.42616486    614.50266    700.02507   -8.6983736     22.53085   -1078.6984    8173.9817   -1056.1675 
Loop time of 86.0351 on 8 procs for 100000 steps with 250 atoms

Performance: 10.042 ns/day, 2.390 hours/ns, 1162.316 timesteps/s
98.6% CPU use with 8 MPI tasks x no OpenMP threads

MPI task timing breakdown:
Section |  min time  |  avg time  |  max time  |%varavg| %total
---------------------------------------------------------------
Pair    | 8.1263     | 8.5498     | 9.5085     |  16.9 |  9.94
Neigh   | 0          | 0          | 0          |   0.0 |  0.00
Comm    | 4.8077     | 5.7991     | 6.2279     |  22.8 |  6.74
Output  | 0.068628   | 0.078514   | 0.092235   |   2.9 |  0.09
Modify  | 71.189     | 71.44      | 71.672     |   2.2 | 83.04
Other   |            | 0.1677     |            |       |  0.19

Nlocal:    31.25 ave 35.0 max 30.0 min
Histogram: 6 0 0 0 0 0 0 0 0 2
Nghost:    654.75 ave 656.0 max 651.0 min
Histogram: 2 0 0 0 0 0 0 0 0 6
Neighs:    1000.0 ave 1120.0 max 960.0 min
Histogram: 6 0 0 0 0 0 0 0 0 2
FullNghs:  2000.0 ave 2240.0 max 1920.0 min
Histogram: 6 0 0 0 0 0 0 0 0 2

Total # of neighbors = 16000
Ave neighs/atom = 64.0
Neighbor list builds = 0
Dangerous builds = 0

Please see the log.cite file for references relevant to this simulation

Total wall time: 0:01:26
