LAMMPS (30 Jun 2020)
Lattice spacing in x,y,z = 2.8665 2.8665 2.8665
Created orthogonal box = (0.0 0.0 0.0) to (14.3325 14.3325 14.3325)
  2 by 2 by 2 MPI processor grid
Created 250 atoms
  create_atoms CPU = 0.000 seconds
Setting atom values ...
  250 settings made for spin
Neighbor list info ...
  update every 10 steps, delay 20 steps, check yes
  max neighbors/atom: 2000, page size: 100000
  master list distance cutoff = 5.7733670002446
  ghost atom cutoff = 5.7733670002446
  binsize = 2.8866835001223, bins = 5.0 5.0 5.0
  2 neighbor lists, perpetual/occasional/extra = 2 0 0
  (1) pair eam/alloy, perpetual, half/full from (2)
      attributes: half, newton on
      pair build: halffull/newton
      stencil: none
      bin: none
  (2) pair spin/exchange, perpetual
      attributes: full, newton on
      pair build: full/bin/atomonly
      stencil: full/bin/3d
      bin: standard
Setting up Verlet run ...
  Unit style    : metal
  Current step  : 0
  Time step     : 0.0001
Per MPI rank memory allocation (min/avg/max) = 7.742 | 7.742 | 7.742 Mbytes
Step Time v_magnorm v_tmag Temp v_emag KinEng PotEng Press TotEng 
       0            0            1            0    800.02865   -27.791345    25.749543   -1097.7914    9341.6858   -1072.0418 
    5000          0.5   0.63031142    623.46034    800.02865    -12.32198    25.749543    -1082.322    9341.6858   -1056.5725 
   10000            1   0.49987603    721.06342    800.02865    -8.432574    25.749543   -1078.4326    9341.6858    -1052.683 
   15000          1.5   0.45974538    720.04077    800.02865   -7.7819593    25.749543    -1077.782    9341.6858   -1052.0324 
   20000            2   0.43097532    737.67749    800.02865   -7.4275336    25.749543   -1077.4276    9341.6858    -1051.678 
   25000          2.5   0.37380169    813.95746    800.02865   -5.5693807    25.749543   -1075.5694    9341.6858   -1049.8199 
   30000            3   0.35355705    935.60555    800.02865   -4.6259479    25.749543    -1074.626    9341.6858   -1048.8764 
   35000          3.5   0.31177686    955.39842    800.02865   -4.9024979    25.749543   -1074.9025    9341.6858    -1049.153 
   40000            4   0.22335177    796.41248    800.02865   -3.9090533    25.749543   -1073.9091    9341.6858   -1048.1595 
   45000          4.5   0.17071272     773.3165    800.02865   -3.9964224    25.749543   -1073.9964    9341.6858   -1048.2469 
   50000            5   0.17173913    957.96994    800.02865   -3.2146339    25.749543   -1073.2147    9341.6858   -1047.4651 
   55000          5.5   0.17598845    835.57023    800.02865   -3.6002697    25.749543   -1073.6003    9341.6858   -1047.8507 
   60000            6   0.13769554    827.72449    800.02865   -4.2285759    25.749543   -1074.2286    9341.6858   -1048.4791 
   65000          6.5  0.082501552    818.98384    800.02865   -4.3328926    25.749543   -1074.3329    9341.6858   -1048.5834 
   70000            7  0.020639972    881.72307    800.02865   -3.6145345    25.749543   -1073.6146    9341.6858    -1047.865 
   75000          7.5    0.1449527    917.27648    800.02865   -3.5175634    25.749543   -1073.5176    9341.6858    -1047.768 
   80000            8   0.14019842     765.5407    800.02865   -4.9417531    25.749543   -1074.9418    9341.6858   -1049.1922 
   85000          8.5    0.1292352    841.77066    800.02865   -3.9934699    25.749543   -1073.9935    9341.6858   -1048.2439 
   90000            9    0.1844843    554.27826    800.02865   -5.8401168    25.749543   -1075.8401    9341.6858   -1050.0906 
   95000          9.5   0.12727198    721.10639    800.02865   -4.6782883    25.749543   -1074.6783    9341.6858   -1048.9288 
  100000           10  0.099700652    974.69632    800.02865   -3.1022982    25.749543   -1073.1023    9341.6858   -1047.3528 
Loop time of 91.7586 on 8 procs for 100000 steps with 250 atoms

Performance: 9.416 ns/day, 2.549 hours/ns, 1089.816 timesteps/s
99.9% CPU use with 8 MPI tasks x no OpenMP threads

MPI task timing breakdown:
Section |  min time  |  avg time  |  max time  |%varavg| %total
---------------------------------------------------------------
Pair    | 7.6555     | 8.0169     | 8.8217     |  15.0 |  8.74
Neigh   | 0          | 0          | 0          |   0.0 |  0.00
Comm    | 4.5333     | 5.4313     | 5.7821     |  21.2 |  5.92
Output  | 0.063643   | 0.0724     | 0.084362   |   2.7 |  0.08
Modify  | 77.965     | 78.095     | 78.256     |   1.1 | 85.11
Other   |            | 0.1429     |            |       |  0.16

Nlocal:    31.25 ave 35.0 max 30.0 min
Histogram: 6 0 0 0 0 0 0 0 0 2
Nghost:    654.75 ave 656.0 max 651.0 min
Histogram: 2 0 0 0 0 0 0 0 0 6
Neighs:    1000.0 ave 1120.0 max 960.0 min
Histogram: 6 0 0 0 0 0 0 0 0 2
FullNghs:  2000.0 ave 2240.0 max 1920.0 min
Histogram: 6 0 0 0 0 0 0 0 0 2

Total # of neighbors = 16000
Ave neighs/atom = 64.0
Neighbor list builds = 0
Dangerous builds = 0

Please see the log.cite file for references relevant to this simulation

Total wall time: 0:01:31
