LAMMPS (30 Jun 2020)
Lattice spacing in x,y,z = 2.8665 2.8665 2.8665
Created orthogonal box = (0.0 0.0 0.0) to (14.3325 14.3325 14.3325)
  2 by 2 by 2 MPI processor grid
Created 250 atoms
  create_atoms CPU = 0.000 seconds
Setting atom values ...
  250 settings made for spin
Neighbor list info ...
  update every 10 steps, delay 20 steps, check yes
  max neighbors/atom: 2000, page size: 100000
  master list distance cutoff = 5.7733670002446
  ghost atom cutoff = 5.7733670002446
  binsize = 2.8866835001223, bins = 5.0 5.0 5.0
  2 neighbor lists, perpetual/occasional/extra = 2 0 0
  (1) pair eam/alloy, perpetual, half/full from (2)
      attributes: half, newton on
      pair build: halffull/newton
      stencil: none
      bin: none
  (2) pair spin/exchange, perpetual
      attributes: full, newton on
      pair build: full/bin/atomonly
      stencil: full/bin/3d
      bin: standard
Setting up Verlet run ...
  Unit style    : metal
  Current step  : 0
  Time step     : 0.0001
Per MPI rank memory allocation (min/avg/max) = 7.742 | 7.742 | 7.742 Mbytes
Step Time v_magnorm v_tmag Temp v_emag KinEng PotEng Press TotEng 
       0            0            1            0    850.03044   -27.791345    27.358889   -1097.7914    9925.5378   -1070.4325 
    5000          0.5   0.57861574    751.04875    850.03044   -10.167112    27.358889   -1080.1671    9925.5378   -1052.8082 
   10000            1   0.49420224    808.57218    850.03044   -8.2448721    27.358889   -1078.2449    9925.5378    -1050.886 
   15000          1.5   0.37534815    847.30156    850.03044   -5.5136057    27.358889   -1075.5136    9925.5378   -1048.1547 
   20000            2   0.30810444      806.155    850.03044   -5.0718378    27.358889   -1075.0719    9925.5378    -1047.713 
   25000          2.5   0.20719053    700.54893    850.03044   -4.6758217    27.358889   -1074.6758    9925.5378   -1047.3169 
   30000            3    0.2090555    847.51774    850.03044   -4.4861635    27.358889   -1074.4862    9925.5378   -1047.1273 
   35000          3.5   0.18216014    741.47175    850.03044   -4.9476327    27.358889   -1074.9477    9925.5378   -1047.5888 
   40000            4   0.14932364    811.06921    850.03044   -3.8290515    27.358889   -1073.8291    9925.5378   -1046.4702 
   45000          4.5   0.10546498    780.90449    850.03044   -4.4580562    27.358889   -1074.4581    9925.5378   -1047.0992 
   50000            5   0.14872033    891.46143    850.03044   -3.5089877    27.358889    -1073.509    9925.5378   -1046.1501 
   55000          5.5   0.15444677    866.06525    850.03044    -3.208717    27.358889   -1073.2087    9925.5378   -1045.8498 
   60000            6    0.1594265    934.84161    850.03044    -3.537448    27.358889   -1073.5375    9925.5378   -1046.1786 
   65000          6.5   0.11584513    689.44904    850.03044   -3.6530944    27.358889   -1073.6531    9925.5378   -1046.2942 
   70000            7   0.13358021    819.04107    850.03044   -3.6129124    27.358889   -1073.6129    9925.5378    -1046.254 
   75000          7.5   0.10581562    882.29992    850.03044   -3.1615636    27.358889   -1073.1616    9925.5378   -1045.8027 
   80000            8   0.15563578    770.26448    850.03044   -3.7177245    27.358889   -1073.7177    9925.5378   -1046.3589 
   85000          8.5   0.20443173    718.61328    850.03044   -5.2277099    27.358889   -1075.2277    9925.5378   -1047.8688 
   90000            9  0.062395733    745.14261    850.03044   -3.7909203    27.358889   -1073.7909    9925.5378    -1046.432 
   95000          9.5   0.11068551    740.24202    850.03044   -3.6811114    27.358889   -1073.6811    9925.5378   -1046.3222 
  100000           10  0.090023396    1046.6348    850.03044   -2.5099275    27.358889   -1072.5099    9925.5378   -1045.1511 
Loop time of 79.1612 on 8 procs for 100000 steps with 250 atoms

Performance: 10.914 ns/day, 2.199 hours/ns, 1263.246 timesteps/s
99.0% CPU use with 8 MPI tasks x no OpenMP threads

MPI task timing breakdown:
Section |  min time  |  avg time  |  max time  |%varavg| %total
---------------------------------------------------------------
Pair    | 7.7361     | 8.1642     | 8.9702     |  15.3 | 10.31
Neigh   | 0          | 0          | 0          |   0.0 |  0.00
Comm    | 4.0475     | 5.0293     | 5.4074     |  23.1 |  6.35
Output  | 0.064448   | 0.074      | 0.087965   |   2.9 |  0.09
Modify  | 65.583     | 65.754     | 65.937     |   1.5 | 83.06
Other   |            | 0.1394     |            |       |  0.18

Nlocal:    31.25 ave 35.0 max 30.0 min
Histogram: 6 0 0 0 0 0 0 0 0 2
Nghost:    654.75 ave 656.0 max 651.0 min
Histogram: 2 0 0 0 0 0 0 0 0 6
Neighs:    1000.0 ave 1120.0 max 960.0 min
Histogram: 6 0 0 0 0 0 0 0 0 2
FullNghs:  2000.0 ave 2240.0 max 1920.0 min
Histogram: 6 0 0 0 0 0 0 0 0 2

Total # of neighbors = 16000
Ave neighs/atom = 64.0
Neighbor list builds = 0
Dangerous builds = 0

Please see the log.cite file for references relevant to this simulation

Total wall time: 0:01:19
