LAMMPS (30 Jun 2020)
Lattice spacing in x,y,z = 2.8665 2.8665 2.8665
Created orthogonal box = (0.0 0.0 0.0) to (14.3325 14.3325 14.3325)
  2 by 2 by 2 MPI processor grid
Created 250 atoms
  create_atoms CPU = 0.000 seconds
Setting atom values ...
  250 settings made for spin
Neighbor list info ...
  update every 10 steps, delay 20 steps, check yes
  max neighbors/atom: 2000, page size: 100000
  master list distance cutoff = 5.7733670002446
  ghost atom cutoff = 5.7733670002446
  binsize = 2.8866835001223, bins = 5.0 5.0 5.0
  2 neighbor lists, perpetual/occasional/extra = 2 0 0
  (1) pair eam/alloy, perpetual, half/full from (2)
      attributes: half, newton on
      pair build: halffull/newton
      stencil: none
      bin: none
  (2) pair spin/exchange, perpetual
      attributes: full, newton on
      pair build: full/bin/atomonly
      stencil: full/bin/3d
      bin: standard
Setting up Verlet run ...
  Unit style    : metal
  Current step  : 0
  Time step     : 0.0001
Per MPI rank memory allocation (min/avg/max) = 7.742 | 7.742 | 7.742 Mbytes
Step Time v_magnorm v_tmag Temp v_emag KinEng PotEng Press TotEng 
       0            0            1            0    900.03223   -27.791345    28.968236   -1097.7914     10509.39   -1068.8231 
    5000          0.5   0.55596423    650.57471    900.03223    -10.15733    28.968236   -1080.1573     10509.39   -1051.1891 
   10000            1   0.45135992    735.04532    900.03223   -7.3271655    28.968236   -1077.3272     10509.39   -1048.3589 
   15000          1.5   0.39488526    837.88541    900.03223   -5.8334123    28.968236   -1075.8334     10509.39   -1046.8652 
   20000            2   0.33774789    842.88005    900.03223   -4.9702973    28.968236   -1074.9703     10509.39   -1046.0021 
   25000          2.5   0.26894388    856.62752    900.03223    -4.788785    28.968236   -1074.7888     10509.39   -1045.8206 
   30000            3   0.15647175    764.07914    900.03223   -3.8528072    28.968236   -1073.8528     10509.39   -1044.8846 
   35000          3.5   0.14827555    823.57128    900.03223   -4.0763114    28.968236   -1074.0763     10509.39   -1045.1081 
   40000            4   0.13229496    734.60328    900.03223   -4.1259692    28.968236    -1074.126     10509.39   -1045.1578 
   45000          4.5   0.12577343    1087.6792    900.03223    -2.496591    28.968236   -1072.4966     10509.39   -1043.5284 
   50000            5   0.12056209    972.84438    900.03223   -3.0089342    28.968236    -1073.009     10509.39   -1044.0407 
   55000          5.5  0.035525504    859.92869    900.03223   -2.8491324    28.968236   -1072.8491     10509.39   -1043.8809 
   60000            6   0.11459884    1164.2217    900.03223   -2.2245342    28.968236   -1072.2246     10509.39   -1043.2563 
   65000          6.5   0.16077061    892.24458    900.03223   -3.5488877    28.968236   -1073.5489     10509.39   -1044.5807 
   70000            7  0.077725972    1164.8716    900.03223   -2.1972197    28.968236   -1072.1972     10509.39    -1043.229 
   75000          7.5   0.13391706    908.10939    900.03223   -3.6153515    28.968236   -1073.6154     10509.39   -1044.6471 
   80000            8   0.17369202    981.70711    900.03223   -3.3293124    28.968236   -1073.3293     10509.39   -1044.3611 
   85000          8.5     0.098395    961.50965    900.03223   -3.1397342    28.968236   -1073.1398     10509.39   -1044.1715 
   90000            9   0.13914652    831.17131    900.03223   -3.8541208    28.968236   -1073.8541     10509.39   -1044.8859 
   95000          9.5   0.12526547     760.3215    900.03223   -3.9451422    28.968236   -1073.9452     10509.39   -1044.9769 
  100000           10   0.17078221    846.28395    900.03223   -3.1756395    28.968236   -1073.1757     10509.39   -1044.2074 
Loop time of 91.3713 on 8 procs for 100000 steps with 250 atoms

Performance: 9.456 ns/day, 2.538 hours/ns, 1094.435 timesteps/s
97.5% CPU use with 8 MPI tasks x no OpenMP threads

MPI task timing breakdown:
Section |  min time  |  avg time  |  max time  |%varavg| %total
---------------------------------------------------------------
Pair    | 8.3732     | 8.7375     | 9.5886     |  14.4 |  9.56
Neigh   | 0          | 0          | 0          |   0.0 |  0.00
Comm    | 5.1109     | 6.1089     | 6.5392     |  21.2 |  6.69
Output  | 0.13808    | 0.15282    | 0.16632    |   2.6 |  0.17
Modify  | 75.938     | 76.201     | 76.421     |   1.8 | 83.40
Other   |            | 0.171      |            |       |  0.19

Nlocal:    31.25 ave 35.0 max 30.0 min
Histogram: 6 0 0 0 0 0 0 0 0 2
Nghost:    654.75 ave 656.0 max 651.0 min
Histogram: 2 0 0 0 0 0 0 0 0 6
Neighs:    1000.0 ave 1120.0 max 960.0 min
Histogram: 6 0 0 0 0 0 0 0 0 2
FullNghs:  2000.0 ave 2240.0 max 1920.0 min
Histogram: 6 0 0 0 0 0 0 0 0 2

Total # of neighbors = 16000
Ave neighs/atom = 64.0
Neighbor list builds = 0
Dangerous builds = 0

Please see the log.cite file for references relevant to this simulation

Total wall time: 0:01:31
