LAMMPS (30 Jun 2020)
Lattice spacing in x,y,z = 2.8665 2.8665 2.8665
Created orthogonal box = (0.0 0.0 0.0) to (14.3325 14.3325 14.3325)
  2 by 2 by 2 MPI processor grid
Created 250 atoms
  create_atoms CPU = 0.001 seconds
Setting atom values ...
  250 settings made for spin
Neighbor list info ...
  update every 10 steps, delay 20 steps, check yes
  max neighbors/atom: 2000, page size: 100000
  master list distance cutoff = 5.7733670002446
  ghost atom cutoff = 5.7733670002446
  binsize = 2.8866835001223, bins = 5.0 5.0 5.0
  2 neighbor lists, perpetual/occasional/extra = 2 0 0
  (1) pair eam/alloy, perpetual, half/full from (2)
      attributes: half, newton on
      pair build: halffull/newton
      stencil: none
      bin: none
  (2) pair spin/exchange, perpetual
      attributes: full, newton on
      pair build: full/bin/atomonly
      stencil: full/bin/3d
      bin: standard
Setting up Verlet run ...
  Unit style    : metal
  Current step  : 0
  Time step     : 0.0001
Per MPI rank memory allocation (min/avg/max) = 7.742 | 7.742 | 7.742 Mbytes
Step Time v_magnorm v_tmag Temp v_emag KinEng PotEng Press TotEng 
       0            0            1            0    1000.0358   -27.791345    32.186929   -1097.7914    11677.094   -1065.6044 
    5000          0.5   0.60604061    732.22069    1000.0358   -10.931005    32.186929    -1080.931    11677.094   -1048.7441 
   10000            1   0.45905314    756.68694    1000.0358   -7.3067003    32.186929   -1077.3067    11677.094   -1045.1198 
   15000          1.5    0.2111702    1111.1341    1000.0358   -2.8457656    32.186929   -1072.8458    11677.094   -1040.6589 
   20000            2   0.31581411    909.20967    1000.0358   -4.5943889    32.186929   -1074.5944    11677.094   -1042.4075 
   25000          2.5   0.22169343    830.35709    1000.0358   -4.2278786    32.186929   -1074.2279    11677.094    -1042.041 
   30000            3   0.21162132    832.70709    1000.0358   -3.7821049    32.186929   -1073.7821    11677.094   -1041.5952 
   35000          3.5   0.11123217    877.06517    1000.0358   -3.3603056    32.186929   -1073.3603    11677.094   -1041.1734 
   40000            4   0.14766746    1112.5163    1000.0358   -2.6737712    32.186929   -1072.6738    11677.094   -1040.4869 
   45000          4.5   0.16270369    973.83111    1000.0358   -3.3613418    32.186929   -1073.3614    11677.094   -1041.1744 
   50000            5  0.088449282    946.30296    1000.0358   -2.7297221    32.186929   -1072.7297    11677.094   -1040.5428 
   55000          5.5  0.062645633    1478.9355    1000.0358   -1.5094593    32.186929   -1071.5095    11677.094   -1039.3225 
   60000            6  0.045590518    1210.6045    1000.0358   -1.7847213    32.186929   -1071.7847    11677.094   -1039.5978 
   65000          6.5   0.12735882    873.83573    1000.0358   -3.0080789    32.186929   -1073.0081    11677.094   -1040.8212 
   70000            7     0.102109    1286.4901    1000.0358   -1.9645547    32.186929   -1071.9646    11677.094   -1039.7776 
   75000          7.5   0.13947771    1035.6807    1000.0358   -2.6871409    32.186929   -1072.6872    11677.094   -1040.5002 
   80000            8   0.17486968     974.8716    1000.0358   -3.1243349    32.186929   -1073.1244    11677.094   -1040.9374 
   85000          8.5   0.17893246    912.28475    1000.0358   -3.0466821    32.186929   -1073.0467    11677.094   -1040.8598 
   90000            9   0.12649919    1260.4158    1000.0358   -1.9903267    32.186929   -1071.9903    11677.094   -1039.8034 
   95000          9.5  0.081198471     983.3525    1000.0358   -2.7580991    32.186929   -1072.7581    11677.094   -1040.5712 
  100000           10   0.14650578    870.41299    1000.0358   -3.2130378    32.186929   -1073.2131    11677.094   -1041.0261 
Loop time of 63.3369 on 8 procs for 100000 steps with 250 atoms

Performance: 13.641 ns/day, 1.759 hours/ns, 1578.858 timesteps/s
100.0% CPU use with 8 MPI tasks x no OpenMP threads

MPI task timing breakdown:
Section |  min time  |  avg time  |  max time  |%varavg| %total
---------------------------------------------------------------
Pair    | 7.3933     | 7.676      | 8.4737     |  15.2 | 12.12
Neigh   | 0          | 0          | 0          |   0.0 |  0.00
Comm    | 3.0538     | 3.9996     | 4.3556     |  25.1 |  6.31
Output  | 0.063146   | 0.07186    | 0.08484    |   2.8 |  0.11
Modify  | 51.387     | 51.459     | 51.616     |   1.2 | 81.25
Other   |            | 0.1307     |            |       |  0.21

Nlocal:    31.25 ave 35.0 max 30.0 min
Histogram: 6 0 0 0 0 0 0 0 0 2
Nghost:    654.75 ave 656.0 max 651.0 min
Histogram: 2 0 0 0 0 0 0 0 0 6
Neighs:    1000.0 ave 1120.0 max 960.0 min
Histogram: 6 0 0 0 0 0 0 0 0 2
FullNghs:  2000.0 ave 2240.0 max 1920.0 min
Histogram: 6 0 0 0 0 0 0 0 0 2

Total # of neighbors = 16000
Ave neighs/atom = 64.0
Neighbor list builds = 0
Dangerous builds = 0

Please see the log.cite file for references relevant to this simulation

Total wall time: 0:01:03
