LAMMPS (30 Jun 2020)
Lattice spacing in x,y,z = 2.8665 2.8665 2.8665
Created orthogonal box = (0.0 0.0 0.0) to (14.3325 14.3325 14.3325)
  2 by 2 by 2 MPI processor grid
Created 250 atoms
  create_atoms CPU = 0.001 seconds
Setting atom values ...
  250 settings made for spin
Neighbor list info ...
  update every 10 steps, delay 20 steps, check yes
  max neighbors/atom: 2000, page size: 100000
  master list distance cutoff = 5.7733670002446
  ghost atom cutoff = 5.7733670002446
  binsize = 2.8866835001223, bins = 5.0 5.0 5.0
  2 neighbor lists, perpetual/occasional/extra = 2 0 0
  (1) pair eam/alloy, perpetual, half/full from (2)
      attributes: half, newton on
      pair build: halffull/newton
      stencil: none
      bin: none
  (2) pair spin/exchange, perpetual
      attributes: full, newton on
      pair build: full/bin/atomonly
      stencil: full/bin/3d
      bin: standard
Setting up Verlet run ...
  Unit style    : metal
  Current step  : 0
  Time step     : 0.0001
Per MPI rank memory allocation (min/avg/max) = 7.742 | 7.742 | 7.742 Mbytes
Step Time v_magnorm v_tmag Temp v_emag KinEng PotEng Press TotEng 
       0            0            1            0    100.00358   -27.791345    3.2186929   -1097.7914   -34909.079   -1094.5727 
    5000          0.5   0.95997273     87.38692    48.544916   -25.875946    1.5624558   -1094.2317   -29544.035   -1092.6693 
   10000            1   0.95566247    95.719205    57.783313   -25.696002    1.8598008   -1094.3309   -29821.936   -1092.4711 
   15000          1.5   0.94823435    104.72338    43.959868   -25.436141    1.4148825   -1093.6198   -28873.505   -1092.2049 
   20000            2    0.9509533    97.606365    39.981798   -25.587952    1.2868452   -1093.6494   -29215.465   -1092.3625 
   25000          2.5   0.95414763    85.821889    51.255112   -25.828787    1.6496855   -1094.2525   -30237.826   -1092.6029 
   30000            3   0.94858028     100.1544    52.031148   -25.539529    1.6746629   -1093.9781   -29916.919   -1092.3035 
   35000          3.5   0.95247266    98.247657    55.353918   -25.608887    1.7816088   -1094.1508   -29911.664   -1092.3692 
   40000            4   0.95174194    93.531717    49.851646   -25.679378    1.6045139    -1094.042   -29534.681   -1092.4375 
   45000          4.5   0.95567311    102.89245    54.942842    -25.59011     1.768378   -1094.1115   -29499.561   -1092.3432 
   50000            5   0.94879853    111.31396    49.043478   -25.381428    1.5785024   -1093.7098   -29186.273   -1092.1313 
   55000          5.5   0.95328009     100.1191    50.567088   -25.603009     1.627541   -1093.9843   -29399.585   -1092.3568 
   60000            6   0.95238662     98.53892    46.522369   -25.594225    1.4973585   -1093.8499   -29540.677   -1092.3525 
   65000          6.5   0.95033176      108.201    52.089269   -25.399619    1.6765336    -1093.828   -29491.603   -1092.1514 
   70000            7   0.95431904    97.564514    46.627894   -25.634637     1.500755   -1093.8744   -29551.969   -1092.3737 
   75000          7.5   0.96068508    85.793665    46.014947   -25.916278    1.4810268   -1094.1315    -29959.62   -1092.6505 
   80000            8   0.95728434    87.121912    51.751793   -25.839502    1.6656716   -1094.2358   -29970.386   -1092.5702 
   85000          8.5   0.95904559    88.190735    45.421555   -25.848383     1.461928   -1094.0512   -29664.635   -1092.5893 
   90000            9   0.95713247    96.240242    46.260508   -25.685863    1.4889304   -1093.9175   -29402.753   -1092.4286 
   95000          9.5   0.95951561    94.345665    55.168803   -25.759351    1.7756508   -1094.2869   -29983.753   -1092.5112 
  100000           10   0.94981359    97.376038    47.964652   -25.569738    1.5437795   -1093.8586   -29199.464   -1092.3148 
Loop time of 66.3648 on 8 procs for 100000 steps with 250 atoms

Performance: 13.019 ns/day, 1.843 hours/ns, 1506.823 timesteps/s
99.8% CPU use with 8 MPI tasks x no OpenMP threads

MPI task timing breakdown:
Section |  min time  |  avg time  |  max time  |%varavg| %total
---------------------------------------------------------------
Pair    | 9.3883     | 9.4577     | 9.5532     |   1.7 | 14.25
Neigh   | 0.060012   | 0.060433   | 0.060871   |   0.1 |  0.09
Comm    | 3.9414     | 4.0077     | 4.0615     |   2.3 |  6.04
Output  | 0.064882   | 0.30206    | 0.65536    |  43.7 |  0.46
Modify  | 52.096     | 52.415     | 52.663     |   3.1 | 78.98
Other   |            | 0.1216     |            |       |  0.18

Nlocal:    31.25 ave 36.0 max 24.0 min
Histogram: 1 0 0 1 0 2 1 0 1 2
Nghost:    623.375 ave 636.0 max 607.0 min
Histogram: 1 0 1 0 1 2 1 0 0 2
Neighs:    985.125 ave 1122.0 max 748.0 min
Histogram: 1 0 0 1 0 1 2 0 0 3
FullNghs:  1970.25 ave 2272.0 max 1514.0 min
Histogram: 1 0 0 1 0 2 1 0 1 2

Total # of neighbors = 15762
Ave neighs/atom = 63.048
Neighbor list builds = 624
Dangerous builds = 0

Please see the log.cite file for references relevant to this simulation

Total wall time: 0:01:06
