LAMMPS (30 Jun 2020)
Lattice spacing in x,y,z = 2.8665 2.8665 2.8665
Created orthogonal box = (0.0 0.0 0.0) to (14.3325 14.3325 14.3325)
  2 by 2 by 2 MPI processor grid
Created 250 atoms
  create_atoms CPU = 0.000 seconds
Setting atom values ...
  250 settings made for spin
Neighbor list info ...
  update every 10 steps, delay 20 steps, check yes
  max neighbors/atom: 2000, page size: 100000
  master list distance cutoff = 5.7733670002446
  ghost atom cutoff = 5.7733670002446
  binsize = 2.8866835001223, bins = 5.0 5.0 5.0
  2 neighbor lists, perpetual/occasional/extra = 2 0 0
  (1) pair eam/alloy, perpetual, half/full from (2)
      attributes: half, newton on
      pair build: halffull/newton
      stencil: none
      bin: none
  (2) pair spin/exchange, perpetual
      attributes: full, newton on
      pair build: full/bin/atomonly
      stencil: full/bin/3d
      bin: standard
Setting up Verlet run ...
  Unit style    : metal
  Current step  : 0
  Time step     : 0.0001
Per MPI rank memory allocation (min/avg/max) = 7.742 | 7.742 | 7.742 Mbytes
Step Time v_magnorm v_tmag Temp v_emag KinEng PotEng Press TotEng 
       0            0            1            0    150.00537   -27.791345    4.8280393   -1097.7914   -34325.227   -1092.9633 
    5000          0.5   0.93265172    149.79352    73.109853   -24.534097    2.3530974   -1092.0822     -25787.8   -1089.7291 
   10000            1   0.92926068    149.94195    84.937238   -24.475415    2.7337709   -1092.4105   -26468.435   -1089.6767 
   15000          1.5   0.92285877     153.4024    66.874627   -24.362877    2.1524118   -1091.7319   -25639.994   -1089.5795 
   20000            2   0.92981782    135.64329    68.538193    -24.72788    2.2059549   -1092.1282   -26773.524   -1089.9222 
   25000          2.5   0.92581651    149.02573    74.056668   -24.479443    2.3835713   -1092.0641   -26535.782   -1089.6805 
   30000            3    0.9332821    142.72975    78.899152   -24.637512    2.5394304   -1092.3746   -27058.196   -1089.8352 
   35000          3.5   0.92123935    169.56525    71.883842   -24.057693    2.3136372   -1091.5637   -25346.942   -1089.2501 
   40000            4   0.92849583    142.95875    81.814233   -24.548605    2.6332546   -1092.3774   -26674.039   -1089.7442 
   45000          4.5   0.93343752     142.5234    80.640987   -24.628849    2.5954928   -1092.4194   -26557.472   -1089.8239 
   50000            5   0.92717881    150.71573    68.053176   -24.477102    2.1903443   -1091.8596   -26255.464   -1089.6692 
   55000          5.5   0.91870992    168.68756    78.819943   -24.051086     2.536881    -1091.773   -26018.092   -1089.2361 
   60000            6   0.91789893    157.70542    73.033703    -24.18398    2.3506464   -1091.7332   -25996.903   -1089.3826 
   65000          6.5   0.92666737    150.47188    73.542239   -24.419766     2.367014   -1091.9868   -26043.358   -1089.6198 
   70000            7   0.92729416    156.04046    82.504329   -24.336207    2.6554659   -1092.1804   -26269.121   -1089.5249 
   75000          7.5   0.93179036    152.42053     74.87475    -24.42905    2.4099019   -1092.0246    -26186.17   -1089.6147 
   80000            8   0.93157653    138.48579    76.343412   -24.649862     2.457172   -1092.3009   -26301.913   -1089.8437 
   85000          8.5   0.93003449    156.53907    71.995013   -24.410188    2.3172154   -1091.9219   -26311.431   -1089.6047 
   90000            9   0.92903586    143.27958    77.776967   -24.555971     2.503312   -1092.2463   -26972.244    -1089.743 
   95000          9.5   0.93150315    145.82227    71.343415   -24.581719    2.2962432   -1092.0675   -26587.341   -1089.7713 
  100000           10   0.93120353    153.78703    74.266972   -24.452188    2.3903401   -1092.0065   -26297.846   -1089.6162 
Loop time of 76.7527 on 8 procs for 100000 steps with 250 atoms

Performance: 11.257 ns/day, 2.132 hours/ns, 1302.885 timesteps/s
100.0% CPU use with 8 MPI tasks x no OpenMP threads

MPI task timing breakdown:
Section |  min time  |  avg time  |  max time  |%varavg| %total
---------------------------------------------------------------
Pair    | 9.5655     | 9.606      | 9.6493     |   0.8 | 12.52
Neigh   | 0.07284    | 0.073277   | 0.073873   |   0.1 |  0.10
Comm    | 4.5185     | 4.6111     | 4.698      |   2.4 |  6.01
Output  | 0.064024   | 0.074287   | 0.086668   |   2.8 |  0.10
Modify  | 62.21      | 62.263     | 62.342     |   0.5 | 81.12
Other   |            | 0.1246     |            |       |  0.16

Nlocal:    31.25 ave 34.0 max 25.0 min
Histogram: 1 0 0 0 1 0 2 0 2 2
Nghost:    613.125 ave 628.0 max 604.0 min
Histogram: 2 1 2 0 0 0 1 1 0 1
Neighs:    977.375 ave 1115.0 max 743.0 min
Histogram: 1 0 0 1 0 1 1 1 2 1
FullNghs:  1954.75 ave 2130.0 max 1557.0 min
Histogram: 1 0 0 0 1 0 2 0 2 2

Total # of neighbors = 15638
Ave neighs/atom = 62.552
Neighbor list builds = 764
Dangerous builds = 0

Please see the log.cite file for references relevant to this simulation

Total wall time: 0:01:17
