LAMMPS (30 Jun 2020)
Lattice spacing in x,y,z = 2.8665 2.8665 2.8665
Created orthogonal box = (0.0 0.0 0.0) to (14.3325 14.3325 14.3325)
  2 by 2 by 2 MPI processor grid
Created 250 atoms
  create_atoms CPU = 0.000 seconds
Setting atom values ...
  250 settings made for spin
Neighbor list info ...
  update every 10 steps, delay 20 steps, check yes
  max neighbors/atom: 2000, page size: 100000
  master list distance cutoff = 5.7733670002446
  ghost atom cutoff = 5.7733670002446
  binsize = 2.8866835001223, bins = 5.0 5.0 5.0
  2 neighbor lists, perpetual/occasional/extra = 2 0 0
  (1) pair eam/alloy, perpetual, half/full from (2)
      attributes: half, newton on
      pair build: halffull/newton
      stencil: none
      bin: none
  (2) pair spin/exchange, perpetual
      attributes: full, newton on
      pair build: full/bin/atomonly
      stencil: full/bin/3d
      bin: standard
Setting up Verlet run ...
  Unit style    : metal
  Current step  : 0
  Time step     : 0.0001
Per MPI rank memory allocation (min/avg/max) = 7.742 | 7.742 | 7.742 Mbytes
Step Time v_magnorm v_tmag Temp v_emag KinEng PotEng Press TotEng 
       0            0            1            0    200.00716   -27.791345    6.4373858   -1097.7914   -33741.375    -1091.354 
    5000          0.5   0.91128598    192.25571     98.11041   -23.497426    3.1577597   -1090.2481   -22435.933   -1087.0904 
   10000            1   0.91127802    177.81028    113.09189   -23.759171    3.6399502   -1090.9681   -23788.046   -1087.3281 
   15000          1.5   0.90206811    207.79138    97.297474   -23.185218    3.1315947   -1089.8838   -22618.682   -1086.7522 
   20000            2   0.90139397     182.6533    103.12261   -23.564951    3.3190812   -1090.4288   -24197.799   -1087.1097 
   25000          2.5   0.89280972    214.13869     99.26858   -22.979502    3.1950363   -1089.7108   -22559.407   -1086.5157 
   30000            3   0.90715577    196.75077    105.02626   -23.412819    3.3803518   -1090.3176   -23439.611   -1086.9372 
   35000          3.5   0.90348412     195.6503    105.17135   -23.372111    3.3850216   -1090.2623   -23225.357   -1086.8773 
   40000            4   0.90864732    187.59476    106.13692   -23.541024    3.4160992   -1090.4797   -23669.732   -1087.0636 
   45000          4.5   0.91613601    174.66368    100.19294   -23.839851    3.2247875   -1090.5906   -23563.308   -1087.3658 
   50000            5   0.90125842    190.30705    93.340785   -23.458788    3.0042456   -1090.0027   -23293.268   -1086.9985 
   55000          5.5   0.90181675    197.73668     103.2422   -23.302664    3.3229304   -1090.1569   -23549.505    -1086.834 
   60000            6    0.9056218    202.63037    100.10795   -23.289791    3.2220521   -1090.0517   -22693.138   -1086.8296 
   65000          6.5   0.90479968    201.83707    107.02412   -23.270059    3.4446542   -1090.2209   -22805.759   -1086.7763 
   70000            7   0.90750405    179.39792    111.49487   -23.685614    3.5885488    -1090.773   -23050.324   -1087.1845 
   75000          7.5   0.89790153    204.19859    100.14492   -23.059175    3.2232419   -1089.7933   -22012.009     -1086.57 
   80000            8   0.90411358      197.748    101.02669   -23.188118    3.2516226   -1089.9556   -22344.727   -1086.7039 
   85000          8.5   0.90411551    197.70618    100.58451    -23.37701    3.2373904   -1090.1374    -23436.59      -1086.9 
   90000            9   0.91103137    185.91028    89.026491   -23.690395    2.8653867   -1090.0541   -23077.218   -1087.1888 
   95000          9.5   0.89329683    209.11919    96.872413   -22.998033    3.1179138   -1089.6059   -22788.887   -1086.4879 
  100000           10   0.89270517    226.80728    102.51861   -22.793583    3.2996409   -1089.5726   -22254.722   -1086.2729 
Loop time of 79.013 on 8 procs for 100000 steps with 250 atoms

Performance: 10.935 ns/day, 2.195 hours/ns, 1265.614 timesteps/s
99.6% CPU use with 8 MPI tasks x no OpenMP threads

MPI task timing breakdown:
Section |  min time  |  avg time  |  max time  |%varavg| %total
---------------------------------------------------------------
Pair    | 9.8048     | 9.9407     | 10.103     |   3.2 | 12.58
Neigh   | 0.083537   | 0.084197   | 0.085246   |   0.2 |  0.11
Comm    | 4.4733     | 4.6479     | 4.7734     |   4.8 |  5.88
Output  | 0.063722   | 0.07326    | 0.085048   |   2.5 |  0.09
Modify  | 63.88      | 64.106     | 64.356     |   1.9 | 81.13
Other   |            | 0.1606     |            |       |  0.20

Nlocal:    31.25 ave 33.0 max 27.0 min
Histogram: 1 0 0 0 0 1 1 0 3 2
Nghost:    606.125 ave 612.0 max 596.0 min
Histogram: 1 1 0 0 0 1 1 0 1 3
Neighs:    975.125 ave 1031.0 max 878.0 min
Histogram: 1 0 0 0 1 2 0 0 2 2
FullNghs:  1950.25 ave 2064.0 max 1687.0 min
Histogram: 1 0 0 0 1 0 1 0 3 2

Total # of neighbors = 15602
Ave neighs/atom = 62.408
Neighbor list builds = 884
Dangerous builds = 0

Please see the log.cite file for references relevant to this simulation

Total wall time: 0:01:19
