LAMMPS (30 Jun 2020)
Lattice spacing in x,y,z = 2.8665 2.8665 2.8665
Created orthogonal box = (0.0 0.0 0.0) to (14.3325 14.3325 14.3325)
  2 by 2 by 2 MPI processor grid
Created 250 atoms
  create_atoms CPU = 0.000 seconds
Setting atom values ...
  250 settings made for spin
Neighbor list info ...
  update every 10 steps, delay 20 steps, check yes
  max neighbors/atom: 2000, page size: 100000
  master list distance cutoff = 5.7733670002446
  ghost atom cutoff = 5.7733670002446
  binsize = 2.8866835001223, bins = 5.0 5.0 5.0
  2 neighbor lists, perpetual/occasional/extra = 2 0 0
  (1) pair eam/alloy, perpetual, half/full from (2)
      attributes: half, newton on
      pair build: halffull/newton
      stencil: none
      bin: none
  (2) pair spin/exchange, perpetual
      attributes: full, newton on
      pair build: full/bin/atomonly
      stencil: full/bin/3d
      bin: standard
Setting up Verlet run ...
  Unit style    : metal
  Current step  : 0
  Time step     : 0.0001
Per MPI rank memory allocation (min/avg/max) = 7.742 | 7.742 | 7.742 Mbytes
Step Time v_magnorm v_tmag Temp v_emag KinEng PotEng Press TotEng 
       0            0            1            0    250.00895   -27.791345    8.0467322   -1097.7914   -33157.523   -1089.7446 
    5000          0.5   0.90616408    210.46876    123.97319   -23.198105    3.9901733   -1089.1516   -20024.609   -1085.1615 
   10000            1   0.87969008    245.45153    140.02801   -22.310267    4.5069103   -1088.7517   -20040.226   -1084.2448 
   15000          1.5   0.88150351    241.75878    134.20119   -22.279433    4.3193696   -1088.5333    -20448.86   -1084.2139 
   20000            2    0.8846229    254.15703    132.06528   -22.241379    4.2506234   -1088.4214   -20777.959   -1084.1707 
   25000          2.5   0.86768162    277.42149    123.32338   -21.474033    3.9692588   -1087.3448   -18115.623   -1083.3756 
   30000            3   0.87286026     255.4549    129.05919   -22.065539    4.1538702   -1088.0878   -19554.714   -1083.9339 
   35000          3.5    0.8872381    232.86202    134.99978    -22.48152    4.3450729   -1088.6524   -20451.729   -1084.3073 
   40000            4   0.88208969    243.21441    122.48743   -22.357651    3.9423529   -1088.1386   -20065.041   -1084.1962 
   45000          4.5    0.8707045    258.70489    118.79154    -21.93893     3.823398   -1087.5892   -19375.073   -1083.7658 
   50000            5   0.87528555    264.89638    124.24864   -21.906303    3.9990388   -1087.7666   -19897.682   -1083.7675 
   55000          5.5   0.88239336    232.72448    127.08379   -22.399584    4.0902905   -1088.3219   -20228.654   -1084.2316 
   60000            6   0.88986833    225.29294    126.28302   -22.635051     4.064517   -1088.4765   -19625.756    -1084.412 
   65000          6.5   0.86144257    241.19452     127.8361   -22.027934    4.1145042   -1087.8994   -18568.205   -1083.7849 
   70000            7   0.87783157    238.22148    132.82729   -22.315728    4.2751495   -1088.3241   -18881.946    -1084.049 
   75000          7.5   0.87713662    264.36438     126.1065   -21.863721    4.0588355   -1087.5983   -18401.961   -1083.5394 
   80000            8   0.86716722    271.96143    127.58404    -21.67623    4.1063913   -1087.4381   -18465.062   -1083.3317 
   85000          8.5   0.87394745    254.36013    130.95304   -21.988553    4.2148253   -1087.8309   -18896.792   -1083.6161 
   90000            9   0.86215536    273.23936    131.95726   -21.629025    4.2471469   -1087.5434   -18355.116   -1083.2963 
   95000          9.5   0.86409681    268.86798    128.35216   -21.679832    4.1311138    -1087.419   -18111.118   -1083.2879 
  100000           10   0.86687647    255.57252    133.63239   -21.867658    4.3010623    -1087.768   -19345.498    -1083.467 
Loop time of 78.0733 on 8 procs for 100000 steps with 250 atoms

Performance: 11.067 ns/day, 2.169 hours/ns, 1280.848 timesteps/s
99.9% CPU use with 8 MPI tasks x no OpenMP threads

MPI task timing breakdown:
Section |  min time  |  avg time  |  max time  |%varavg| %total
---------------------------------------------------------------
Pair    | 9.8345     | 10.012     | 10.173     |   4.0 | 12.82
Neigh   | 0.09321    | 0.094045   | 0.096687   |   0.3 |  0.12
Comm    | 4.5381     | 4.6078     | 4.714      |   2.5 |  5.90
Output  | 0.06449    | 0.29632    | 0.53009    |  42.1 |  0.38
Modify  | 62.49      | 62.936     | 63.346     |   4.2 | 80.61
Other   |            | 0.1277     |            |       |  0.16

Nlocal:    31.25 ave 37.0 max 25.0 min
Histogram: 1 0 1 2 0 1 0 0 1 2
Nghost:    584.625 ave 600.0 max 567.0 min
Histogram: 1 1 0 0 0 3 1 1 0 1
Neighs:    972.25 ave 1136.0 max 746.0 min
Histogram: 1 0 0 1 2 1 0 0 0 3
FullNghs:  1944.5 ave 2307.0 max 1549.0 min
Histogram: 1 0 1 2 0 1 0 0 1 2

Total # of neighbors = 15556
Ave neighs/atom = 62.224
Neighbor list builds = 988
Dangerous builds = 0

Please see the log.cite file for references relevant to this simulation

Total wall time: 0:01:18
