LAMMPS (30 Jun 2020)
Lattice spacing in x,y,z = 2.8665 2.8665 2.8665
Created orthogonal box = (0.0 0.0 0.0) to (14.3325 14.3325 14.3325)
  2 by 2 by 2 MPI processor grid
Created 250 atoms
  create_atoms CPU = 0.000 seconds
Setting atom values ...
  250 settings made for spin
Neighbor list info ...
  update every 10 steps, delay 20 steps, check yes
  max neighbors/atom: 2000, page size: 100000
  master list distance cutoff = 5.7733670002446
  ghost atom cutoff = 5.7733670002446
  binsize = 2.8866835001223, bins = 5.0 5.0 5.0
  2 neighbor lists, perpetual/occasional/extra = 2 0 0
  (1) pair eam/alloy, perpetual, half/full from (2)
      attributes: half, newton on
      pair build: halffull/newton
      stencil: none
      bin: none
  (2) pair spin/exchange, perpetual
      attributes: full, newton on
      pair build: full/bin/atomonly
      stencil: full/bin/3d
      bin: standard
Setting up Verlet run ...
  Unit style    : metal
  Current step  : 0
  Time step     : 0.0001
Per MPI rank memory allocation (min/avg/max) = 7.742 | 7.742 | 7.742 Mbytes
Step Time v_magnorm v_tmag Temp v_emag KinEng PotEng Press TotEng 
       0            0            1            0    300.01074   -27.791345    9.6560786   -1097.7914   -32573.671   -1088.1353 
    5000          0.5   0.89497112    235.95236    148.88618   -22.644695    4.7920173   -1087.8115   -17262.631   -1083.0195 
   10000            1   0.85483238    280.33349    162.56025   -21.264294    5.2321278   -1086.8799   -16678.406   -1081.6478 
   15000          1.5   0.85536087    303.90982    169.52152   -20.938337    5.4561818   -1086.7081   -17598.294   -1081.2519 
   20000            2   0.83784294    321.38001    156.92718   -20.500652    5.0508229   -1085.8391   -15886.924   -1080.7883 
   25000          2.5   0.85231263    300.20055    154.73652   -20.944136    4.9803149   -1086.1774   -15339.074   -1081.1971 
   30000            3   0.85328019    280.01368    149.06244   -21.207701    4.7976902   -1086.2228   -15872.869   -1081.4251 
   35000          3.5    0.8495924    272.03902    156.34488    -21.25405    5.0320812   -1086.4321   -16535.448   -1081.4001 
   40000            4    0.8472874    299.66348    144.39463   -20.886964    4.6474534   -1085.6544   -16094.116    -1081.007 
   45000          4.5   0.86383839    258.60355     150.4581   -21.753162    4.8426108   -1086.7404   -17497.248   -1081.8978 
   50000            5   0.82627458    301.84208    149.10089    -20.31288     4.798928   -1085.2183   -15160.154   -1080.4194 
   55000          5.5   0.81179044    337.57441    139.53666   -19.815736    4.4910957   -1084.3667   -13413.046   -1079.8756 
   60000            6   0.82236202    325.32218    163.65118    -20.05415    5.2672403   -1085.3648   -14518.488   -1080.0976 
   65000          6.5   0.82348785    304.12504    157.06071   -20.460966    5.0551207   -1085.4233   -14728.851   -1080.3682 
   70000            7   0.82582643    310.41143    154.73716    -20.44092    4.9803356    -1085.338   -15149.226   -1080.3577 
   75000          7.5   0.84366804    296.57499    157.52934   -20.921221    5.0702042   -1085.8636   -15559.648   -1080.7934 
   80000            8   0.82651969    308.83593    164.84702   -20.335864    5.3057294    -1085.454    -14384.33   -1080.1483 
   85000          8.5   0.84311259    293.50492    183.19282   -20.723295    5.8962029    -1086.354   -15195.121   -1080.4578 
   90000            9   0.83950056    302.19804    168.15817   -20.739024    5.4123011   -1085.8958   -13919.756   -1080.4835 
   95000          9.5   0.83508274    287.50669    165.08095   -20.924271    5.3132586   -1085.8687   -14395.366   -1080.5554 
  100000           10   0.83872776    319.60936    159.17336   -20.439845     5.123118   -1085.1261   -14662.189    -1080.003 
Loop time of 65.0897 on 8 procs for 100000 steps with 250 atoms

Performance: 13.274 ns/day, 1.808 hours/ns, 1536.342 timesteps/s
99.9% CPU use with 8 MPI tasks x no OpenMP threads

MPI task timing breakdown:
Section |  min time  |  avg time  |  max time  |%varavg| %total
---------------------------------------------------------------
Pair    | 9.5826     | 9.6224     | 9.6823     |   1.2 | 14.78
Neigh   | 0.1028     | 0.10346    | 0.10529    |   0.2 |  0.16
Comm    | 3.8496     | 3.9024     | 3.9604     |   1.9 |  6.00
Output  | 0.064904   | 0.32026    | 0.57862    |  44.7 |  0.49
Modify  | 50.752     | 51.023     | 51.273     |   3.3 | 78.39
Other   |            | 0.1179     |            |       |  0.18

Nlocal:    31.25 ave 35.0 max 26.0 min
Histogram: 1 0 0 0 1 3 1 0 1 1
Nghost:    586.125 ave 597.0 max 575.0 min
Histogram: 1 0 1 0 1 3 0 0 1 1
Neighs:    970.75 ave 1096.0 max 825.0 min
Histogram: 1 0 1 0 2 1 1 0 1 1
FullNghs:  1941.5 ave 2180.0 max 1613.0 min
Histogram: 1 0 0 0 1 3 1 0 1 1

Total # of neighbors = 15532
Ave neighs/atom = 62.128
Neighbor list builds = 1092
Dangerous builds = 0

Please see the log.cite file for references relevant to this simulation

Total wall time: 0:01:05
