LAMMPS (30 Jun 2020)
Lattice spacing in x,y,z = 2.8665 2.8665 2.8665
Created orthogonal box = (0.0 0.0 0.0) to (14.3325 14.3325 14.3325)
  2 by 2 by 2 MPI processor grid
Created 250 atoms
  create_atoms CPU = 0.000 seconds
Setting atom values ...
  250 settings made for spin
Neighbor list info ...
  update every 10 steps, delay 20 steps, check yes
  max neighbors/atom: 2000, page size: 100000
  master list distance cutoff = 5.7733670002446
  ghost atom cutoff = 5.7733670002446
  binsize = 2.8866835001223, bins = 5.0 5.0 5.0
  2 neighbor lists, perpetual/occasional/extra = 2 0 0
  (1) pair eam/alloy, perpetual, half/full from (2)
      attributes: half, newton on
      pair build: halffull/newton
      stencil: none
      bin: none
  (2) pair spin/exchange, perpetual
      attributes: full, newton on
      pair build: full/bin/atomonly
      stencil: full/bin/3d
      bin: standard
Setting up Verlet run ...
  Unit style    : metal
  Current step  : 0
  Time step     : 0.0001
Per MPI rank memory allocation (min/avg/max) = 7.742 | 7.742 | 7.742 Mbytes
Step Time v_magnorm v_tmag Temp v_emag KinEng PotEng Press TotEng 
       0            0            1            0    350.01253   -27.791345    11.265425   -1097.7914   -31989.819   -1086.5259 
    5000          0.5   0.85940925    305.36668    174.45497   -21.012781    5.6149687   -1085.3973   -13058.311   -1079.7823 
   10000            1   0.84597216    318.95669    186.98693   -20.533155    6.0183194   -1085.3563   -14026.804    -1079.338 
   15000          1.5   0.84354981    305.48074    195.19674   -20.626749    6.2825586   -1085.7253   -15787.101   -1079.4428 
   20000            2   0.82624957    352.17422     174.4682    -19.73012    5.6153943   -1084.1566   -12120.085   -1078.5412 
   25000          2.5   0.80171778    354.44797    198.88266   -19.231708    6.4011927   -1084.4345   -12976.057   -1078.0333 
   30000            3   0.80973427    358.64839    173.79142   -19.456016    5.5936119   -1083.8875   -12222.056   -1078.2939 
   35000          3.5   0.78859218     360.4894    178.00557   -19.053829    5.7292474   -1083.5758   -12471.908   -1077.8465 
   40000            4   0.79429608    327.96555    165.83608   -19.424223    5.3375631   -1083.5198   -12952.616   -1078.1822 
   45000          4.5   0.77990843    346.09101    167.09398   -19.044272    5.3780494   -1083.0286   -11997.055   -1077.6505 
   50000            5   0.78447353    359.18483    172.18232    -18.83986    5.5418217   -1083.0476   -11614.705   -1077.5058 
   55000          5.5   0.81273807    347.20715    175.23874   -19.550713    5.6401947    -1083.806   -12329.318   -1078.1658 
   60000            6    0.8183704    323.31537    181.64872   -20.073667    5.8465051   -1084.5249   -12972.996   -1078.6784 
   65000          6.5   0.81378679    340.83596    175.94547   -19.662138    5.6629414   -1083.8795   -12835.545   -1078.2166 
   70000            7   0.81949014    354.76003    181.09978   -19.560441    5.8288368   -1083.9632   -13002.102   -1078.1344 
   75000          7.5   0.79862082    392.44855     180.0724   -18.689901      5.79577   -1083.0514   -11005.683   -1077.2557 
   80000            8   0.81549677    351.11749    186.33286   -19.729716    5.9972677   -1084.2972   -11719.444      -1078.3 
   85000          8.5   0.82524559     347.3581    192.66644   -19.781908    6.2011188   -1084.5767   -12034.103   -1078.3756 
   90000            9   0.79184365    359.77823    185.31312   -18.975052    5.9644465   -1083.5326   -11171.874   -1077.5682 
   95000          9.5   0.81368488    320.01568     182.8487   -20.035997    5.8851272   -1084.4968   -12554.943   -1078.6116 
  100000           10   0.81101108    352.01708    185.03469   -19.612042    5.9554852   -1084.1356   -12239.242   -1078.1801 
Loop time of 76.6631 on 8 procs for 100000 steps with 250 atoms

Performance: 11.270 ns/day, 2.130 hours/ns, 1304.409 timesteps/s
99.9% CPU use with 8 MPI tasks x no OpenMP threads

MPI task timing breakdown:
Section |  min time  |  avg time  |  max time  |%varavg| %total
---------------------------------------------------------------
Pair    | 9.8891     | 10.035     | 10.167     |   3.8 | 13.09
Neigh   | 0.1081     | 0.1086     | 0.10911    |   0.1 |  0.14
Comm    | 4.4098     | 4.4962     | 4.5523     |   2.1 |  5.86
Output  | 0.064108   | 0.19847    | 0.33522    |  29.6 |  0.26
Modify  | 61.362     | 61.696     | 62.006     |   3.2 | 80.48
Other   |            | 0.1287     |            |       |  0.17

Nlocal:    31.25 ave 36.0 max 26.0 min
Histogram: 1 0 1 1 0 1 1 0 2 1
Nghost:    573.75 ave 585.0 max 566.0 min
Histogram: 3 0 0 1 2 0 0 0 1 1
Neighs:    974.375 ave 1109.0 max 784.0 min
Histogram: 1 0 2 0 0 0 1 1 1 2
FullNghs:  1948.75 ave 2247.0 max 1616.0 min
Histogram: 1 1 0 1 0 1 1 0 2 1

Total # of neighbors = 15590
Ave neighs/atom = 62.36
Neighbor list builds = 1154
Dangerous builds = 0

Please see the log.cite file for references relevant to this simulation

Total wall time: 0:01:16
