LAMMPS (30 Jun 2020)
Lattice spacing in x,y,z = 2.8665 2.8665 2.8665
Created orthogonal box = (0.0 0.0 0.0) to (14.3325 14.3325 14.3325)
  2 by 2 by 2 MPI processor grid
Created 250 atoms
  create_atoms CPU = 0.128 seconds
Setting atom values ...
  250 settings made for spin
Neighbor list info ...
  update every 10 steps, delay 20 steps, check yes
  max neighbors/atom: 2000, page size: 100000
  master list distance cutoff = 5.7733670002446
  ghost atom cutoff = 5.7733670002446
  binsize = 2.8866835001223, bins = 5.0 5.0 5.0
  2 neighbor lists, perpetual/occasional/extra = 2 0 0
  (1) pair eam/alloy, perpetual, half/full from (2)
      attributes: half, newton on
      pair build: halffull/newton
      stencil: none
      bin: none
  (2) pair spin/exchange, perpetual
      attributes: full, newton on
      pair build: full/bin/atomonly
      stencil: full/bin/3d
      bin: standard
Setting up Verlet run ...
  Unit style    : metal
  Current step  : 0
  Time step     : 0.0001
Per MPI rank memory allocation (min/avg/max) = 7.742 | 7.742 | 7.742 Mbytes
Step Time v_magnorm v_tmag Temp v_emag KinEng PotEng Press TotEng 
       0            0            1            0    400.01433   -27.791345    12.874772   -1097.7914   -31405.966   -1084.9166 
    5000          0.5   0.81916715    367.60817    200.12611   -19.320955    6.4412141   -1082.9419   -8866.6629   -1076.5007 
   10000            1   0.77776321    400.98612     214.6413   -18.220411    6.9083969   -1082.3367   -9243.4704   -1075.4283 
   15000          1.5   0.74652028    400.82029    222.02739   -17.601769    7.1461239   -1081.9256   -9662.6507   -1074.7795 
   20000            2   0.74513018    422.52866    196.35597   -17.317405    6.3198693   -1080.8366   -5923.9089   -1074.5168 
   25000          2.5   0.74118936    429.65265    225.07825   -16.966077    7.2443182   -1081.4017   -7339.0291   -1074.1573 
   30000            3   0.78829288    391.00879    197.00681   -18.446345     6.340817   -1081.9213   -8386.3416   -1075.5805 
   35000          3.5   0.77490715    404.54384    197.81172   -17.935624    6.3667239   -1081.3164   -8120.8015   -1074.9497 
   40000            4   0.79226352    380.13522    203.49469   -18.764009    6.5496344   -1082.3275   -9666.4866   -1075.7779 
   45000          4.5   0.77775137     409.4355    206.70287   -17.744974    6.6528924   -1081.3209   -8929.3836    -1074.668 
   50000            5   0.75397979    455.36538     202.9284   -17.122917    6.5314079   -1080.5136   -6414.1636   -1073.9822 
   55000          5.5    0.7506282     394.5017    202.07582   -17.869109    6.5039671   -1081.1716   -8776.0068   -1074.6676 
   60000            6   0.77530751     367.2244    206.02108   -18.395634    6.6309483   -1081.7018   -10126.988   -1075.0708 
   65000          6.5   0.76211388    387.40304    199.13883   -18.185389    6.4094376    -1081.239   -9061.0977   -1074.8295 
   70000            7   0.76350653    406.53095    206.44664   -17.872085    6.6446452   -1081.1864   -7762.2768   -1074.5417 
   75000          7.5   0.77310507    407.68485    206.93622   -18.023161    6.6604029    -1081.259   -7700.9647   -1074.5986 
   80000            8   0.76982795     417.1057    208.07107   -17.771285     6.696929   -1081.1083     -8178.89   -1074.4114 
   85000          8.5   0.76592298    416.26684    217.18495   -17.706098    6.9902661   -1081.2495   -8600.4156   -1074.2593 
   90000            9    0.7369792    409.96553    196.70432   -17.206478    6.3310813   -1080.1045   -5829.8945   -1073.7734 
   95000          9.5   0.72652576    398.18934    226.74024   -17.594076    7.2978107   -1081.3111   -7314.1667   -1074.0133 
  100000           10   0.73617192    427.60009    222.40826   -17.294212    7.1583826   -1080.7885   -5614.4006   -1073.6301 
Loop time of 157.162 on 8 procs for 100000 steps with 250 atoms

Performance: 5.498 ns/day, 4.366 hours/ns, 636.287 timesteps/s
93.6% CPU use with 8 MPI tasks x no OpenMP threads

MPI task timing breakdown:
Section |  min time  |  avg time  |  max time  |%varavg| %total
---------------------------------------------------------------
Pair    | 13.053     | 13.292     | 13.533     |   4.7 |  8.46
Neigh   | 0.11638    | 0.11746    | 0.11836    |   0.2 |  0.07
Comm    | 8.1691     | 8.6465     | 8.8883     |   8.5 |  5.50
Output  | 0.063381   | 0.10782    | 0.15292    |  12.6 |  0.07
Modify  | 134.36     | 134.75     | 135.31     |   3.1 | 85.74
Other   |            | 0.244      |            |       |  0.16

Nlocal:    31.25 ave 35.0 max 28.0 min
Histogram: 1 1 2 0 1 0 0 1 1 1
Nghost:    582.875 ave 598.0 max 574.0 min
Histogram: 1 1 3 0 1 1 0 0 0 1
Neighs:    968.625 ave 1059.0 max 888.0 min
Histogram: 1 2 0 2 0 0 0 0 1 2
FullNghs:  1937.25 ave 2164.0 max 1729.0 min
Histogram: 1 1 2 0 1 0 0 1 1 1

Total # of neighbors = 15498
Ave neighs/atom = 61.992
Neighbor list builds = 1251
Dangerous builds = 0

Please see the log.cite file for references relevant to this simulation

Total wall time: 0:02:40
