LAMMPS (30 Jun 2020)
Lattice spacing in x,y,z = 2.8665 2.8665 2.8665
Created orthogonal box = (0.0 0.0 0.0) to (14.3325 14.3325 14.3325)
  2 by 2 by 2 MPI processor grid
Created 250 atoms
  create_atoms CPU = 0.000 seconds
Setting atom values ...
  250 settings made for spin
Neighbor list info ...
  update every 10 steps, delay 20 steps, check yes
  max neighbors/atom: 2000, page size: 100000
  master list distance cutoff = 5.7733670002446
  ghost atom cutoff = 5.7733670002446
  binsize = 2.8866835001223, bins = 5.0 5.0 5.0
  2 neighbor lists, perpetual/occasional/extra = 2 0 0
  (1) pair eam/alloy, perpetual, half/full from (2)
      attributes: half, newton on
      pair build: halffull/newton
      stencil: none
      bin: none
  (2) pair spin/exchange, perpetual
      attributes: full, newton on
      pair build: full/bin/atomonly
      stencil: full/bin/3d
      bin: standard
Setting up Verlet run ...
  Unit style    : metal
  Current step  : 0
  Time step     : 0.0001
Per MPI rank memory allocation (min/avg/max) = 7.742 | 7.742 | 7.742 Mbytes
Step Time v_magnorm v_tmag Temp v_emag KinEng PotEng Press TotEng 
       0            0            1            0    450.01612   -27.791345    14.484118   -1097.7914   -30822.114   -1083.3072 
    5000          0.5   0.80890894     377.4609    228.78217   -18.949542    7.3635317   -1081.7578   -6241.5774   -1074.3942 
   10000            1   0.74948026    424.39614    240.95469   -17.185586    7.7553137   -1080.2036   -5433.0692   -1072.4483 
   15000          1.5   0.74247249    447.80292    242.15394   -16.863635    7.7939126   -1079.7972   -4664.6542   -1072.0032 
   20000            2   0.71634058    470.17817    234.22296   -15.804637    7.5386478   -1078.3582   -1549.4637   -1070.8196 
   25000          2.5   0.73634571    414.47427    257.43863   -17.088424    8.2858622   -1080.4289   -4538.7366    -1072.143 
   30000            3   0.74866295    441.38121    229.22208   -17.265151    7.3776906   -1079.7109   -5074.1499   -1072.3333 
   35000          3.5   0.73912266    454.57795    234.53282   -16.917283    7.5486209    -1079.352   -4645.0267   -1071.8034 
   40000            4    0.7336395    446.94401     255.4418   -16.719468    8.2215927   -1079.8102   -5024.6366   -1071.5886 
   45000          4.5   0.71813585    427.99123    239.05866   -16.305482    7.6942884   -1078.8779    -3665.658   -1071.1836 
   50000            5   0.72930308    449.74616    255.23639   -16.874577    8.2149814   -1079.8956    -5908.786   -1071.6806 
   55000          5.5    0.7366948     438.4818    254.48079    -17.01992    8.1906617   -1080.0556   -7085.9429   -1071.8649 
   60000            6   0.72544459    429.51674    220.64925   -16.513692    7.1017672   -1078.2924   -3490.6563   -1071.1907 
   65000          6.5    0.7308876    446.18338    247.44316    -16.66656    7.9641502   -1079.3856   -4998.2092   -1071.4214 
   70000            7   0.70805461    421.61302    241.93217   -16.418122    7.7867746   -1079.0094   -4076.0099   -1071.2226 
   75000          7.5    0.6962029    444.40432    236.04315   -16.172995    7.5972321   -1078.5744   -3952.4745   -1070.9772 
   80000            8   0.72754549    410.05466    222.43889   -17.163719    7.1593683   -1079.0464   -4328.9297    -1071.887 
   85000          8.5   0.77172929     385.9444    224.83111   -18.297566    7.2363636   -1080.2925    -6200.967   -1073.0561 
   90000            9   0.74310313    449.22315    233.08651   -16.913466    7.5020704   -1079.1392   -4103.3863   -1071.6372 
   95000          9.5   0.69581979    486.00447    258.22386   -15.565071    8.3111354   -1078.5883   -3701.2485   -1070.2772 
  100000           10   0.74795002     428.2331    226.40216   -17.043819    7.2869293   -1078.8848    -3850.965   -1071.5979 
Loop time of 81.5314 on 8 procs for 100000 steps with 250 atoms

Performance: 10.597 ns/day, 2.265 hours/ns, 1226.521 timesteps/s
100.0% CPU use with 8 MPI tasks x no OpenMP threads

MPI task timing breakdown:
Section |  min time  |  avg time  |  max time  |%varavg| %total
---------------------------------------------------------------
Pair    | 9.9014     | 9.9323     | 9.9847     |   0.7 | 12.18
Neigh   | 0.12419    | 0.12465    | 0.12527    |   0.1 |  0.15
Comm    | 4.7336     | 4.7865     | 4.8267     |   1.5 |  5.87
Output  | 0.06389    | 0.073562   | 0.084466   |   2.6 |  0.09
Modify  | 66.46      | 66.496     | 66.548     |   0.3 | 81.56
Other   |            | 0.1189     |            |       |  0.15

Nlocal:    31.25 ave 34.0 max 27.0 min
Histogram: 1 0 1 0 0 2 0 1 2 1
Nghost:    573.875 ave 589.0 max 561.0 min
Histogram: 1 2 1 1 0 0 0 0 1 2
Neighs:    966.75 ave 1075.0 max 854.0 min
Histogram: 1 1 0 2 0 1 0 0 2 1
FullNghs:  1933.5 ave 2112.0 max 1672.0 min
Histogram: 1 0 1 0 0 2 1 0 2 1

Total # of neighbors = 15468
Ave neighs/atom = 61.872
Neighbor list builds = 1334
Dangerous builds = 0

Please see the log.cite file for references relevant to this simulation

Total wall time: 0:01:21
