LAMMPS (30 Jun 2020)
Lattice spacing in x,y,z = 2.8665 2.8665 2.8665
Created orthogonal box = (0.0 0.0 0.0) to (14.3325 14.3325 14.3325)
  2 by 2 by 2 MPI processor grid
Created 250 atoms
  create_atoms CPU = 0.000 seconds
Setting atom values ...
  250 settings made for spin
Neighbor list info ...
  update every 10 steps, delay 20 steps, check yes
  max neighbors/atom: 2000, page size: 100000
  master list distance cutoff = 5.7733670002446
  ghost atom cutoff = 5.7733670002446
  binsize = 2.8866835001223, bins = 5.0 5.0 5.0
  2 neighbor lists, perpetual/occasional/extra = 2 0 0
  (1) pair eam/alloy, perpetual, half/full from (2)
      attributes: half, newton on
      pair build: halffull/newton
      stencil: none
      bin: none
  (2) pair spin/exchange, perpetual
      attributes: full, newton on
      pair build: full/bin/atomonly
      stencil: full/bin/3d
      bin: standard
Setting up Verlet run ...
  Unit style    : metal
  Current step  : 0
  Time step     : 0.0001
Per MPI rank memory allocation (min/avg/max) = 7.742 | 7.742 | 7.742 Mbytes
Step Time v_magnorm v_tmag Temp v_emag KinEng PotEng Press TotEng 
       0            0            1            0    500.01791   -27.791345    16.093464   -1097.7914   -30238.262   -1081.6979 
    5000          0.5   0.77600251    451.91827     256.0514   -17.159795    8.2412132   -1079.3463   -2288.5155   -1071.1051 
   10000            1   0.68961169    528.99182    268.76317   -14.817711    8.6503514   -1077.3258   -1276.5736   -1068.6754 
   15000          1.5    0.6490284    573.42055    253.99393     -13.3964    8.1749916   -1075.4323    2467.5382   -1067.2573 
   20000            2   0.68923225    456.74894    265.11186   -15.626335    8.5328309   -1078.0152    175.73542   -1069.4823 
   25000          2.5    0.6849824    537.17882    279.07028   -14.569704    8.9820937   -1077.4113   -459.14804   -1068.4292 
   30000            3   0.69953353    507.20558    251.36243   -15.242166    8.0902948   -1077.1268   -1132.9299   -1069.0365 
   35000          3.5   0.70063031    509.16785    265.22628   -15.325626    8.5365136   -1077.5301   -1032.4669   -1068.9935 
   40000            4   0.69678633    481.03593    271.92029    -15.59295    8.7519656   -1077.8833    -265.8754   -1069.1313 
   45000          4.5   0.66148342    543.68746    264.68532   -13.840981    8.5191024   -1075.7807    2542.2058   -1067.2616 
   50000            5   0.67450198    507.58935    265.40172   -14.562969    8.5421604   -1076.3917    2.6802999   -1067.8495 
   55000          5.5   0.66222666    570.82353    255.07565   -13.463972    8.2098079   -1074.8259    2304.9185   -1066.6161 
   60000            6   0.68400505     510.6683    267.69216   -14.297056      8.61588   -1076.0725    632.10899   -1067.4567 
   65000          6.5   0.64019981    521.18372    273.00739   -13.457645    8.7869547   -1075.1658    2520.4212   -1066.3788 
   70000            7   0.65803041     528.0733    272.09428   -14.141642    8.7575656   -1075.8167    1707.2972   -1067.0592 
   75000          7.5   0.69638889    437.55035    260.24051   -16.208609    8.3760427   -1077.4589    -962.1227   -1069.0829 
   80000            8   0.68694929    533.52404    268.29328   -14.718937    8.6352273   -1076.0933     126.1836   -1067.4581 
   85000          8.5   0.71280363    484.30771    263.90009   -15.817589    8.4938293   -1077.0286    407.82404   -1068.5348 
   90000            9   0.74755571    405.16745    269.14956   -17.277128    8.6627873   -1078.5584    -1384.214   -1069.8956 
   95000          9.5   0.69978249    496.54704    274.87545   -15.412945    8.8470797   -1076.7593   -244.79065   -1067.9122 
  100000           10   0.67565033    512.71026     276.1562   -14.753213    8.8883016   -1076.0483    139.41804     -1067.16 
Loop time of 71.0926 on 8 procs for 100000 steps with 250 atoms

Performance: 12.153 ns/day, 1.975 hours/ns, 1406.616 timesteps/s
100.0% CPU use with 8 MPI tasks x no OpenMP threads

MPI task timing breakdown:
Section |  min time  |  avg time  |  max time  |%varavg| %total
---------------------------------------------------------------
Pair    | 9.7511     | 9.8015     | 9.8998     |   1.4 | 13.79
Neigh   | 0.12994    | 0.13042    | 0.1313     |   0.1 |  0.18
Comm    | 4.1221     | 4.2226     | 4.2868     |   2.2 |  5.94
Output  | 0.063504   | 0.073162   | 0.084665   |   2.8 |  0.10
Modify  | 56.714     | 56.75      | 56.781     |   0.3 | 79.83
Other   |            | 0.1147     |            |       |  0.16

Nlocal:    31.25 ave 34.0 max 27.0 min
Histogram: 1 0 2 0 0 1 0 0 2 2
Nghost:    579.5 ave 592.0 max 571.0 min
Histogram: 4 0 0 0 0 1 0 1 1 1
Neighs:    965.75 ave 1089.0 max 822.0 min
Histogram: 1 1 1 0 0 1 0 3 0 1
FullNghs:  1931.5 ave 2104.0 max 1672.0 min
Histogram: 1 0 2 0 0 1 0 0 2 2

Total # of neighbors = 15452
Ave neighs/atom = 61.808
Neighbor list builds = 1396
Dangerous builds = 0

Please see the log.cite file for references relevant to this simulation

Total wall time: 0:01:11
