LAMMPS (30 Jun 2020)
Lattice spacing in x,y,z = 2.8665 2.8665 2.8665
Created orthogonal box = (0.0 0.0 0.0) to (14.3325 14.3325 14.3325)
  2 by 2 by 2 MPI processor grid
Created 250 atoms
  create_atoms CPU = 0.000 seconds
Setting atom values ...
  250 settings made for spin
Neighbor list info ...
  update every 10 steps, delay 20 steps, check yes
  max neighbors/atom: 2000, page size: 100000
  master list distance cutoff = 5.7733670002446
  ghost atom cutoff = 5.7733670002446
  binsize = 2.8866835001223, bins = 5.0 5.0 5.0
  2 neighbor lists, perpetual/occasional/extra = 2 0 0
  (1) pair eam/alloy, perpetual, half/full from (2)
      attributes: half, newton on
      pair build: halffull/newton
      stencil: none
      bin: none
  (2) pair spin/exchange, perpetual
      attributes: full, newton on
      pair build: full/bin/atomonly
      stencil: full/bin/3d
      bin: standard
Setting up Verlet run ...
  Unit style    : metal
  Current step  : 0
  Time step     : 0.0001
Per MPI rank memory allocation (min/avg/max) = 7.742 | 7.742 | 7.742 Mbytes
Step Time v_magnorm v_tmag Temp v_emag KinEng PotEng Press TotEng 
       0            0            1            0    50.001791   -27.791345    1.6093464   -1097.7914   -35492.931    -1096.182 
    5000          0.5   0.98040001    44.809097    24.290821   -26.823849   0.78181892    -1096.002   -32800.321   -1095.2202 
   10000            1   0.97748038    47.891432    28.638849   -26.726583   0.92176358   -1096.0429   -32905.171   -1095.1212 
   15000          1.5    0.9787157    49.405357    23.369747   -26.739906   0.75217345    -1095.892   -32815.334   -1095.1398 
   20000            2   0.97864589    43.857176    19.656648   -26.816729   0.63266448    -1095.851   -32841.082   -1095.2184 
   25000          2.5   0.98015291    44.730374    27.198964   -26.817053   0.87541975   -1096.0913   -33327.812   -1095.2159 
   30000            3   0.97830729    48.658516    22.417893    -26.72593   0.72153729   -1095.8472   -32892.064   -1095.1257 
   35000          3.5   0.97984203    44.610451    27.089092   -26.817996   0.87188344    -1096.086   -33239.972   -1095.2142 
   40000            4   0.97567347    54.200882    22.228837   -26.613564   0.71545237   -1095.7273   -32541.867   -1095.0118 
   45000          4.5   0.98084425    45.089028    23.376294    -26.82712   0.75238416   -1095.9787    -32789.61   -1095.2263 
   50000            5   0.97757241    52.164817    24.333517   -26.671927   0.78319314   -1095.8486   -32684.336   -1095.0654 
   55000          5.5   0.97711528    48.787007    27.581936   -26.719563   0.88774603   -1095.9971    -32822.29   -1095.1093 
   60000            6    0.9774909    47.367165    22.054144   -26.743194   0.70982975   -1095.8419   -32782.407   -1095.1321 
   65000          6.5   0.97810727    46.100441     24.35251   -26.791678   0.78380445   -1095.9645   -32959.536   -1095.1807 
   70000            7    0.9758367     49.13148    23.019466   -26.692086   0.74089939   -1095.8212   -32987.013   -1095.0803 
   75000          7.5   0.97891694    43.199599    23.174754   -26.834167   0.74589743   -1095.9671    -33280.99   -1095.2212 
   80000            8   0.97412757    50.753564    23.391013   -26.651039    0.7528579    -1095.793    -32876.08   -1095.0402 
   85000          8.5   0.97702394     43.95376    25.002786   -26.795493   0.80473408   -1095.9873   -33047.272   -1095.1825 
   90000            9   0.97451774    46.660844    25.213083   -26.725502   0.81150265   -1095.9247   -32679.668   -1095.1132 
   95000          9.5    0.9760944    51.677892    25.173518   -26.678613   0.81022921   -1095.8761    -32581.71   -1095.0659 
  100000           10   0.97634973    47.560952    26.209155   -26.737191     0.843562   -1095.9666   -32689.185   -1095.1231 
Loop time of 87.8194 on 8 procs for 100000 steps with 250 atoms

Performance: 9.838 ns/day, 2.439 hours/ns, 1138.701 timesteps/s
99.9% CPU use with 8 MPI tasks x no OpenMP threads

MPI task timing breakdown:
Section |  min time  |  avg time  |  max time  |%varavg| %total
---------------------------------------------------------------
Pair    | 9.6501     | 9.7306     | 9.8409     |   1.8 | 11.08
Neigh   | 0.042502   | 0.042832   | 0.043143   |   0.1 |  0.05
Comm    | 5.0772     | 5.2296     | 5.3349     |   3.6 |  5.95
Output  | 0.06553    | 0.36521    | 0.66644    |  49.1 |  0.42
Modify  | 71.992     | 72.324     | 72.63      |   3.3 | 82.36
Other   |            | 0.1273     |            |       |  0.14

Nlocal:    31.25 ave 39.0 max 27.0 min
Histogram: 2 1 1 1 1 1 0 0 0 1
Nghost:    647.625 ave 653.0 max 635.0 min
Histogram: 1 0 0 0 1 0 0 1 3 2
Neighs:    991.875 ave 1200.0 max 857.0 min
Histogram: 1 1 1 2 1 1 0 0 0 1
FullNghs:  1983.75 ave 2479.0 max 1707.0 min
Histogram: 2 1 1 1 1 1 0 0 0 1

Total # of neighbors = 15870
Ave neighs/atom = 63.48
Neighbor list builds = 435
Dangerous builds = 0

Please see the log.cite file for references relevant to this simulation

Total wall time: 0:01:27
