LAMMPS (30 Jun 2020)
Lattice spacing in x,y,z = 2.8665 2.8665 2.8665
Created orthogonal box = (0.0 0.0 0.0) to (14.3325 14.3325 14.3325)
  2 by 2 by 2 MPI processor grid
Created 250 atoms
  create_atoms CPU = 0.000 seconds
Setting atom values ...
  250 settings made for spin
Neighbor list info ...
  update every 10 steps, delay 20 steps, check yes
  max neighbors/atom: 2000, page size: 100000
  master list distance cutoff = 5.7733670002446
  ghost atom cutoff = 5.7733670002446
  binsize = 2.8866835001223, bins = 5.0 5.0 5.0
  2 neighbor lists, perpetual/occasional/extra = 2 0 0
  (1) pair eam/alloy, perpetual, half/full from (2)
      attributes: half, newton on
      pair build: halffull/newton
      stencil: none
      bin: none
  (2) pair spin/exchange, perpetual
      attributes: full, newton on
      pair build: full/bin/atomonly
      stencil: full/bin/3d
      bin: standard
Setting up Verlet run ...
  Unit style    : metal
  Current step  : 0
  Time step     : 0.0001
Per MPI rank memory allocation (min/avg/max) = 7.742 | 7.742 | 7.742 Mbytes
Step Time v_magnorm v_tmag Temp v_emag KinEng PotEng Press TotEng 
       0            0            1            0    600.02149   -27.791345    19.312157   -1097.7914   -29070.558   -1078.4792 
    5000          0.5   0.74153425    488.39269    308.04439   -15.787352    9.9146479   -1076.5729    2736.2238   -1066.6582 
   10000            1   0.63925728    542.06782    320.94562   -13.716259    10.329884   -1074.6553    3543.1855   -1064.3255 
   15000          1.5   0.63095449    526.24573     321.0868    -13.32491    10.334428   -1074.1416    6263.3142   -1063.8072 
   20000            2   0.55807346    605.99665    341.04245   -11.291634    10.976716   -1072.6611    8408.4911   -1061.6843 
   25000          2.5   0.48813025    644.68212    350.62919   -9.6714359    11.285273   -1070.9067    9810.4684   -1059.6214 
   30000            3   0.49270531    569.15029    317.50478   -10.088387    10.219138   -1070.1662    10135.862    -1059.947 
   35000          3.5   0.51346278     584.0284    341.52619   -10.760707    10.992285   -1071.5044    10227.172   -1060.5121 
   40000            4   0.52377664    546.37987     347.1662   -11.378222    11.173814    -1072.182    10277.271   -1061.0081 
   45000          4.5    0.4985395    661.59817    327.22845   -9.4983007    10.532102   -1069.3311    12296.943    -1058.799 
   50000            5   0.56782319    629.99741    308.43795    -10.71575    9.9273147    -1069.783    11149.844   -1059.8557 
   55000          5.5   0.57568537    584.06806    337.65043   -11.999119    10.867541   -1071.9451     10040.53   -1061.0775 
   60000            6   0.56393522    592.38432    337.56026   -11.697988    10.864639   -1071.5055    10017.406   -1060.6408 
   65000          6.5    0.5207321    568.35895     367.8578    -10.88163    11.839789   -1071.5393     9904.425   -1059.6995 
   70000            7   0.54931944    568.86787    341.62072   -11.454507    10.995328    -1071.095    11011.489   -1060.0997 
   75000          7.5   0.52659391    567.53171    364.38633   -11.160005    11.728057   -1071.6248    10576.287   -1059.8968 
   80000            8   0.54553821    522.33571    336.23814   -11.960646    10.822086   -1071.5494    11047.137   -1060.7273 
   85000          8.5    0.5162431     659.8421    338.16835   -10.072353    10.884211   -1069.6981    12938.565   -1058.8138 
   90000            9   0.53014904    611.09854    353.21592   -10.321836    11.368528    -1070.125    13291.121   -1058.7565 
   95000          9.5   0.59702902    606.57942    334.92163   -11.905139    10.779713    -1071.055    12021.734   -1060.2753 
  100000           10   0.59980809    600.54432    348.03874   -12.077823    11.201897   -1071.5637    11477.659   -1060.3618 
Loop time of 75.361 on 8 procs for 100000 steps with 250 atoms

Performance: 11.465 ns/day, 2.093 hours/ns, 1326.946 timesteps/s
99.9% CPU use with 8 MPI tasks x no OpenMP threads

MPI task timing breakdown:
Section |  min time  |  avg time  |  max time  |%varavg| %total
---------------------------------------------------------------
Pair    | 9.8489     | 9.9772     | 10.144     |   3.4 | 13.24
Neigh   | 0.14122    | 0.14215    | 0.14377    |   0.2 |  0.19
Comm    | 4.251      | 4.3587     | 4.4411     |   3.0 |  5.78
Output  | 0.063582   | 0.22978    | 0.39829    |  34.2 |  0.30
Modify  | 60.241     | 60.532     | 60.774     |   1.8 | 80.32
Other   |            | 0.1216     |            |       |  0.16

Nlocal:    31.25 ave 35.0 max 27.0 min
Histogram: 1 1 0 1 0 1 1 1 1 1
Nghost:    575.5 ave 587.0 max 567.0 min
Histogram: 1 2 1 0 1 0 1 0 1 1
Neighs:    968.875 ave 1091.0 max 850.0 min
Histogram: 2 0 0 1 0 1 2 0 1 1
FullNghs:  1937.75 ave 2171.0 max 1671.0 min
Histogram: 1 1 0 1 1 0 1 1 1 1

Total # of neighbors = 15502
Ave neighs/atom = 62.008
Neighbor list builds = 1531
Dangerous builds = 0

Please see the log.cite file for references relevant to this simulation

Total wall time: 0:01:15
