LAMMPS (30 Jun 2020)
Lattice spacing in x,y,z = 2.8665 2.8665 2.8665
Created orthogonal box = (0.0 0.0 0.0) to (14.3325 14.3325 14.3325)
  2 by 2 by 2 MPI processor grid
Created 250 atoms
  create_atoms CPU = 0.000 seconds
Setting atom values ...
  250 settings made for spin
Neighbor list info ...
  update every 10 steps, delay 20 steps, check yes
  max neighbors/atom: 2000, page size: 100000
  master list distance cutoff = 5.7733670002446
  ghost atom cutoff = 5.7733670002446
  binsize = 2.8866835001223, bins = 5.0 5.0 5.0
  2 neighbor lists, perpetual/occasional/extra = 2 0 0
  (1) pair eam/alloy, perpetual, half/full from (2)
      attributes: half, newton on
      pair build: halffull/newton
      stencil: none
      bin: none
  (2) pair spin/exchange, perpetual
      attributes: full, newton on
      pair build: full/bin/atomonly
      stencil: full/bin/3d
      bin: standard
Setting up Verlet run ...
  Unit style    : metal
  Current step  : 0
  Time step     : 0.0001
Per MPI rank memory allocation (min/avg/max) = 7.742 | 7.742 | 7.742 Mbytes
Step Time v_magnorm v_tmag Temp v_emag KinEng PotEng Press TotEng 
       0            0            1            0    650.02328   -27.791345    20.921504   -1097.7914   -28486.706   -1076.8699 
    5000          0.5   0.69527126    527.62101    342.31683   -14.636456    11.017733   -1074.6327     6196.071    -1063.615 
   10000            1   0.60232801    648.40113    339.89433   -11.414602    10.939763    -1071.292    9178.8353   -1060.3522 
   15000          1.5   0.53030723    711.63364    351.34316   -9.1236618    11.308252   -1069.0931    14513.458   -1057.7848 
   20000            2   0.54599978    701.34096    360.40939    -9.819546    11.600056   -1069.8409    14117.319   -1058.2408 
   25000          2.5   0.48041848    679.17903    368.11317   -8.7793324    11.848008    -1069.032    13237.386    -1057.184 
   30000            3   0.49378738    666.22133    340.03787   -9.1914936    10.944383   -1068.3917    12918.498   -1057.4473 
   35000          3.5   0.50593987    678.56913    396.52627   -9.4474639    12.762506   -1070.3565    13295.691    -1057.594 
   40000            4   0.51136437     655.4711    370.21815   -8.9827065    11.915759   -1068.7618    14974.828    -1056.846 
   45000          4.5   0.53848857    693.10741    367.11309   -10.162731     11.81582    -1069.558    10796.985   -1057.7421 
   50000            5   0.49186641     677.8312    349.44569   -9.9050619    11.247181   -1068.6791    15409.438   -1057.4319 
   55000          5.5   0.52872023     622.5947    377.35656   -10.474576    12.145514   -1069.8995    14467.444    -1057.754 
   60000            6   0.51374221    684.84482    377.59525   -9.7868413    12.153196   -1068.8791    14881.872   -1056.7259 
   65000          6.5   0.54141031    621.53712    342.03375   -9.9854763    11.008622   -1067.7745    16935.657   -1056.7659 
   70000            7   0.49877764    701.24764    365.21952   -8.9810893    11.754874   -1067.6209    16936.773   -1055.8661 
   75000          7.5   0.49013848      600.546    387.30167   -10.115732    12.465605   -1069.2298    15263.092   -1056.7642 
   80000            8   0.53719454    647.71999    379.38339   -10.135867    12.210749   -1068.7968    14201.038   -1056.5861 
   85000          8.5   0.49087545    650.53762    373.84137   -9.2430513    12.032375   -1067.5037    15774.814   -1055.4714 
   90000            9   0.43597591    642.38849    373.82072   -8.6709053     12.03171   -1066.7692    17338.468   -1054.7374 
   95000          9.5   0.41309305    562.05625    366.37262   -9.0876081    11.791987   -1066.8381    16416.712   -1055.0461 
  100000           10   0.29123597    682.82228     383.2078   -6.5930841     12.33384   -1064.8153    20408.018   -1052.4814 
Loop time of 79.6425 on 8 procs for 100000 steps with 250 atoms

Performance: 10.848 ns/day, 2.212 hours/ns, 1255.612 timesteps/s
99.9% CPU use with 8 MPI tasks x no OpenMP threads

MPI task timing breakdown:
Section |  min time  |  avg time  |  max time  |%varavg| %total
---------------------------------------------------------------
Pair    | 9.8367     | 9.93       | 10.02      |   1.9 | 12.47
Neigh   | 0.14916    | 0.15121    | 0.15432    |   0.5 |  0.19
Comm    | 4.5227     | 4.6009     | 4.6511     |   2.1 |  5.78
Output  | 0.065886   | 0.18051    | 0.29769    |  26.3 |  0.23
Modify  | 64.487     | 64.664     | 64.851     |   1.5 | 81.19
Other   |            | 0.116      |            |       |  0.15

Nlocal:    31.25 ave 34.0 max 27.0 min
Histogram: 2 0 1 0 0 0 0 0 3 2
Nghost:    569.0 ave 581.0 max 559.0 min
Histogram: 1 0 3 0 1 0 1 1 0 1
Neighs:    966.125 ave 1069.0 max 839.0 min
Histogram: 2 0 1 0 0 0 1 2 0 2
FullNghs:  1932.25 ave 2104.0 max 1666.0 min
Histogram: 2 0 1 0 0 0 0 0 3 2

Total # of neighbors = 15458
Ave neighs/atom = 61.832
Neighbor list builds = 1616
Dangerous builds = 0

Please see the log.cite file for references relevant to this simulation

Total wall time: 0:01:19
