LAMMPS (30 Jun 2020)
Lattice spacing in x,y,z = 2.8665 2.8665 2.8665
Created orthogonal box = (0.0 0.0 0.0) to (14.3325 14.3325 14.3325)
  2 by 2 by 2 MPI processor grid
Created 250 atoms
  create_atoms CPU = 0.000 seconds
Setting atom values ...
  250 settings made for spin
Neighbor list info ...
  update every 10 steps, delay 20 steps, check yes
  max neighbors/atom: 2000, page size: 100000
  master list distance cutoff = 5.7733670002446
  ghost atom cutoff = 5.7733670002446
  binsize = 2.8866835001223, bins = 5.0 5.0 5.0
  2 neighbor lists, perpetual/occasional/extra = 2 0 0
  (1) pair eam/alloy, perpetual, half/full from (2)
      attributes: half, newton on
      pair build: halffull/newton
      stencil: none
      bin: none
  (2) pair spin/exchange, perpetual
      attributes: full, newton on
      pair build: full/bin/atomonly
      stencil: full/bin/3d
      bin: standard
Setting up Verlet run ...
  Unit style    : metal
  Current step  : 0
  Time step     : 0.0001
Per MPI rank memory allocation (min/avg/max) = 7.742 | 7.742 | 7.742 Mbytes
Step Time v_magnorm v_tmag Temp v_emag KinEng PotEng Press TotEng 
       0            0            1            0    750.02686   -27.791345    24.140197   -1097.7914   -27319.002   -1073.6512 
    5000          0.5   0.60609557    631.43733    393.36046   -11.448175    12.660612   -1069.9243    13697.552   -1057.2637 
   10000            1    0.5108228    631.58421    389.67731   -9.6837485    12.542067   -1067.6813    16779.075   -1055.1393 
   15000          1.5   0.45013037    758.10563    432.13786   -7.5344772    13.908692   -1066.6107    20005.452    -1052.702 
   20000            2   0.39046363    675.52527    414.41745   -7.1695172    13.338347   -1065.6175    19140.343   -1052.2792 
   25000          2.5   0.35566307    772.57747    407.24655   -5.9787729    13.107546   -1064.0701    19702.528   -1050.9625 
   30000            3   0.32530817    664.84291    418.25004   -6.5894631    13.461702   -1064.8899     20481.61   -1051.4282 
   35000          3.5   0.30545006    722.67077    432.73092   -6.1679534    13.927781   -1064.4631    22269.845   -1050.5353 
   40000            4   0.33293803    639.47993    410.21797   -6.4346179    13.203184   -1063.8055    21238.022   -1050.6023 
   45000          4.5   0.31157358    773.30685    426.53681   -5.3878861    13.728418   -1062.9488    23068.068   -1049.2203 
   50000            5   0.36138139    763.22684    416.85096   -6.5476028    13.416672   -1063.7033    23138.061   -1050.2866 
   55000          5.5   0.39749993    777.94908    412.35267   -6.8056342    13.271891   -1063.8085    20246.381   -1050.5366 
   60000            6   0.38453309    805.05147    392.55331   -6.2623621    12.634633   -1062.3304    22555.258   -1049.6958 
   65000          6.5   0.40688561     762.6614    401.59605   -6.4081966     12.92568   -1062.7768    23266.363   -1049.8512 
   70000            7   0.41228202    739.22748    392.55101   -6.8056869    12.634559   -1062.5256     22226.96   -1049.8911 
   75000          7.5   0.37592412    605.71248    391.80708   -7.1775848    12.610615   -1062.7017    23099.444   -1050.0911 
   80000            8   0.35105214    762.38632    378.25925   -6.3584587    12.174568   -1061.8746    25419.604      -1049.7 
   85000          8.5   0.31450951    742.97018    429.72573   -5.7540685    13.831056   -1063.2195    20383.979   -1049.3884 
   90000            9   0.35973257    737.73106    404.32193   -6.6960015    13.013415   -1063.0831    21348.462   -1050.0697 
   95000          9.5   0.36564541    687.55897    434.55558   -7.0557752    13.986509   -1063.9639    21389.035   -1049.9774 
  100000           10   0.33113821    745.59719     456.6434   -6.5679053    14.697422   -1064.0551    20247.568   -1049.3577 
Loop time of 64.728 on 8 procs for 100000 steps with 250 atoms

Performance: 13.348 ns/day, 1.798 hours/ns, 1544.927 timesteps/s
99.9% CPU use with 8 MPI tasks x no OpenMP threads

MPI task timing breakdown:
Section |  min time  |  avg time  |  max time  |%varavg| %total
---------------------------------------------------------------
Pair    | 10.003     | 10.082     | 10.222     |   2.1 | 15.58
Neigh   | 0.16354    | 0.16474    | 0.16588    |   0.2 |  0.25
Comm    | 3.7614     | 3.8794     | 3.9564     |   2.8 |  5.99
Output  | 0.066236   | 0.38927    | 0.71643    |  51.4 |  0.60
Modify  | 49.763     | 50.096     | 50.41      |   4.3 | 77.39
Other   |            | 0.1161     |            |       |  0.18

Nlocal:    31.25 ave 37.0 max 27.0 min
Histogram: 1 1 1 0 2 1 0 0 1 1
Nghost:    565.5 ave 575.0 max 555.0 min
Histogram: 1 0 1 1 0 0 3 0 1 1
Neighs:    964.25 ave 1114.0 max 839.0 min
Histogram: 1 2 0 1 1 0 1 0 0 2
FullNghs:  1928.5 ave 2284.0 max 1663.0 min
Histogram: 1 1 1 2 0 1 0 0 1 1

Total # of neighbors = 15428
Ave neighs/atom = 61.712
Neighbor list builds = 1714
Dangerous builds = 0

Please see the log.cite file for references relevant to this simulation

Total wall time: 0:01:04
