LAMMPS (30 Jun 2020)
Lattice spacing in x,y,z = 2.8665 2.8665 2.8665
Created orthogonal box = (0.0 0.0 0.0) to (14.3325 14.3325 14.3325)
  2 by 2 by 2 MPI processor grid
Created 250 atoms
  create_atoms CPU = 0.000 seconds
Setting atom values ...
  250 settings made for spin
Neighbor list info ...
  update every 10 steps, delay 20 steps, check yes
  max neighbors/atom: 2000, page size: 100000
  master list distance cutoff = 5.7733670002446
  ghost atom cutoff = 5.7733670002446
  binsize = 2.8866835001223, bins = 5.0 5.0 5.0
  2 neighbor lists, perpetual/occasional/extra = 2 0 0
  (1) pair eam/alloy, perpetual, half/full from (2)
      attributes: half, newton on
      pair build: halffull/newton
      stencil: none
      bin: none
  (2) pair spin/exchange, perpetual
      attributes: full, newton on
      pair build: full/bin/atomonly
      stencil: full/bin/3d
      bin: standard
Setting up Verlet run ...
  Unit style    : metal
  Current step  : 0
  Time step     : 0.0001
Per MPI rank memory allocation (min/avg/max) = 7.742 | 7.742 | 7.742 Mbytes
Step Time v_magnorm v_tmag Temp v_emag KinEng PotEng Press TotEng 
       0            0            1            0    850.03044   -27.791345    27.358889   -1097.7914   -26151.298   -1070.4325 
    5000          0.5   0.56100352    673.84234    443.93136   -10.025402    14.288275   -1067.1405     18099.35   -1052.8523 
   10000            1   0.42677709    789.13901    439.26006   -6.7722678    14.137926   -1063.5522    24603.469   -1049.4142 
   15000          1.5   0.35621531    719.28437    487.91138   -6.2485077    15.703807   -1064.2466    24615.569   -1048.5428 
   20000            2    0.3790732    739.43969     457.6827   -6.9650019    14.730873   -1063.7544    22565.991   -1049.0236 
   25000          2.5   0.28240317    940.48231    445.26745   -3.9548481    14.331279   -1060.1929    26756.232   -1045.8616 
   30000            3   0.21717148    894.09213    442.25457   -3.8178602    14.234306   -1059.7714    31864.528   -1045.5371 
   35000          3.5   0.25236763    774.30633    456.64602   -4.8503756    14.697506   -1061.0443    28026.212   -1046.3467 
   40000            4   0.29385315    939.73616    442.84027   -4.1940779    14.253158   -1059.8113    28482.035   -1045.5581 
   45000          4.5   0.31912476    718.54765    464.39233   -5.7392434    14.946828   -1061.6175    28023.574   -1046.6707 
   50000            5   0.30358075    821.43009    475.67067   -5.4506543     15.30983   -1061.1632    27210.987   -1045.8534 
   55000          5.5    0.2882424    778.47284    452.17193   -5.6109963    14.553505   -1060.4427    29880.398   -1045.8892 
   60000            6   0.21065342    782.23346    488.04694   -5.1724776    15.708169   -1061.1626    29908.878   -1045.4544 
   65000          6.5   0.19838898     848.3054    482.97663   -3.8014358    15.544978   -1059.5609    31150.059   -1044.0159 
   70000            7   0.19025911    730.87113    496.48644   -4.5733901    15.979801    -1060.357    30905.712   -1044.3772 
   75000          7.5   0.19299275    785.94367    521.99284   -4.0840592    16.800745   -1060.2757    31640.094    -1043.475 
   80000            8   0.16006273     1004.797    486.39872   -2.9570554     15.65512   -1057.9122    34774.688   -1042.2571 
   85000          8.5   0.13149087    1055.3147    500.92763   -2.7945686    16.122745    -1057.997    34084.495   -1041.8743 
   90000            9  0.074033039    881.72179    499.02535   -3.2264094    16.061518   -1058.2757    33887.777   -1042.2142 
   95000          9.5   0.18290751    844.23704    498.88067   -3.7075382    16.056861   -1058.5349    33745.864   -1042.4781 
  100000           10   0.11579993    763.57644    501.83673   -4.3845244    16.152005   -1058.9423    36258.066   -1042.7903 
Loop time of 80.1778 on 8 procs for 100000 steps with 250 atoms

Performance: 10.776 ns/day, 2.227 hours/ns, 1247.228 timesteps/s
99.9% CPU use with 8 MPI tasks x no OpenMP threads

MPI task timing breakdown:
Section |  min time  |  avg time  |  max time  |%varavg| %total
---------------------------------------------------------------
Pair    | 10.279     | 10.352     | 10.441     |   1.5 | 12.91
Neigh   | 0.17292    | 0.17376    | 0.1748     |   0.2 |  0.22
Comm    | 4.5813     | 4.684      | 4.7694     |   2.5 |  5.84
Output  | 0.066336   | 0.35433    | 0.6451     |  48.0 |  0.44
Modify  | 64.097     | 64.493     | 64.873     |   4.0 | 80.44
Other   |            | 0.1216     |            |       |  0.15

Nlocal:    31.25 ave 37.0 max 25.0 min
Histogram: 1 0 0 1 2 0 3 0 0 1
Nghost:    565.25 ave 589.0 max 551.0 min
Histogram: 3 0 0 1 2 0 1 0 0 1
Neighs:    966.5 ave 1146.0 max 801.0 min
Histogram: 1 0 1 2 0 1 2 0 0 1
FullNghs:  1933.0 ave 2285.0 max 1548.0 min
Histogram: 1 0 0 1 2 0 3 0 0 1

Total # of neighbors = 15464
Ave neighs/atom = 61.856
Neighbor list builds = 1817
Dangerous builds = 0

Please see the log.cite file for references relevant to this simulation

Total wall time: 0:01:20
