LAMMPS (30 Jun 2020)
Lattice spacing in x,y,z = 2.8665 2.8665 2.8665
Created orthogonal box = (0.0 0.0 0.0) to (14.3325 14.3325 14.3325)
  2 by 2 by 2 MPI processor grid
Created 250 atoms
  create_atoms CPU = 0.000 seconds
Setting atom values ...
  250 settings made for spin
Neighbor list info ...
  update every 10 steps, delay 20 steps, check yes
  max neighbors/atom: 2000, page size: 100000
  master list distance cutoff = 5.7733670002446
  ghost atom cutoff = 5.7733670002446
  binsize = 2.8866835001223, bins = 5.0 5.0 5.0
  2 neighbor lists, perpetual/occasional/extra = 2 0 0
  (1) pair eam/alloy, perpetual, half/full from (2)
      attributes: half, newton on
      pair build: halffull/newton
      stencil: none
      bin: none
  (2) pair spin/exchange, perpetual
      attributes: full, newton on
      pair build: full/bin/atomonly
      stencil: full/bin/3d
      bin: standard
Setting up Verlet run ...
  Unit style    : metal
  Current step  : 0
  Time step     : 0.0001
Per MPI rank memory allocation (min/avg/max) = 7.742 | 7.742 | 7.742 Mbytes
Step Time v_magnorm v_tmag Temp v_emag KinEng PotEng Press TotEng 
       0            0            1            0    900.03223   -27.791345    28.968236   -1097.7914   -25567.446   -1068.8231 
    5000          0.5   0.58388473    643.02185    466.62184    -10.50448    15.018586   -1066.5664    19550.404   -1051.5478 
   10000            1   0.42915129    711.51164    471.63507   -7.4085828    15.179941   -1063.3372     25600.66   -1048.1572 
   15000          1.5   0.30612484    753.49544    519.88267   -5.1922729    16.732827   -1062.4838    28377.624   -1045.7509 
   20000            2   0.20165071    802.49058    486.28898     -4.19271    15.651588   -1059.9168     27497.01   -1044.2652 
   25000          2.5   0.27872433    692.81699    484.99092   -6.1069128    15.609809   -1061.3479    25929.877   -1045.7381 
   30000            3   0.26554485    910.12245    478.64246   -3.9572326    15.405479   -1058.7981    33492.048   -1043.3926 
   35000          3.5   0.19625497    1032.2773    459.04135   -3.2561568    14.774602   -1057.3604    30348.836   -1042.5858 
   40000            4  0.089549988    1038.8008    475.38544   -3.1951899    15.300649   -1057.6196    31239.601   -1042.3189 
   45000          4.5  0.099122094    829.39573    517.68198   -3.9622712    16.661996   -1059.1829    30234.702   -1042.5209 
   50000            5  0.073822808    817.39329    466.17339   -3.9992535    15.004152   -1057.1485    31556.869   -1042.1444 
   55000          5.5      0.16613     955.5696    486.81385   -3.7764459    15.668482    -1057.339    35404.695   -1041.6705 
   60000            6   0.13548273    813.41733    508.31375   -4.1075565    16.360472   -1058.1615    34123.342    -1041.801 
   65000          6.5  0.096096745    775.48872    546.19341   -3.5750666    17.579659   -1058.6578    30703.971   -1041.0782 
   70000            7  0.087564243    915.92609    534.59896   -2.9465199    17.206482   -1057.4417    35959.034   -1040.2352 
   75000          7.5   0.14696398    1055.4906    530.97039   -2.7241987    17.089694   -1057.1381    37331.384   -1040.0484 
   80000            8   0.10978748    1113.3418    516.11654   -2.2845037    16.611611   -1056.2222    36894.732   -1039.6106 
   85000          8.5   0.11212839    938.11855    571.39784   -3.1845939    18.390883   -1058.6915    33553.501   -1040.3006 
   90000            9  0.040990204      857.335    525.99577   -4.0299282    16.929582   -1057.7126     36147.74   -1040.7831 
   95000          9.5  0.078277578    1046.6221    513.39907   -3.1492132    16.524148   -1056.4984    36181.606   -1039.9742 
  100000           10   0.14592874    840.31333    522.71762   -3.2708239    16.824072   -1057.0155    37340.594   -1040.1914 
Loop time of 92.9182 on 8 procs for 100000 steps with 250 atoms

Performance: 9.298 ns/day, 2.581 hours/ns, 1076.215 timesteps/s
99.9% CPU use with 8 MPI tasks x no OpenMP threads

MPI task timing breakdown:
Section |  min time  |  avg time  |  max time  |%varavg| %total
---------------------------------------------------------------
Pair    | 10.678     | 10.902     | 11.095     |   3.7 | 11.73
Neigh   | 0.17507    | 0.18102    | 0.18608    |   0.7 |  0.19
Comm    | 4.9811     | 5.3556     | 5.715      |   9.6 |  5.76
Output  | 0.072831   | 0.35648    | 0.63917    |  46.5 |  0.38
Modify  | 75.453     | 75.994     | 76.461     |   3.8 | 81.79
Other   |            | 0.129      |            |       |  0.14

Nlocal:    31.25 ave 35.0 max 26.0 min
Histogram: 1 0 0 0 3 1 0 1 0 2
Nghost:    563.75 ave 576.0 max 551.0 min
Histogram: 1 1 1 0 2 0 0 0 1 2
Neighs:    963.625 ave 1099.0 max 809.0 min
Histogram: 1 0 0 2 2 0 1 0 0 2
FullNghs:  1927.25 ave 2162.0 max 1603.0 min
Histogram: 1 0 0 0 3 1 0 1 0 2

Total # of neighbors = 15418
Ave neighs/atom = 61.672
Neighbor list builds = 1892
Dangerous builds = 0

Please see the log.cite file for references relevant to this simulation

Total wall time: 0:01:33
