LAMMPS (30 Jun 2020)
Lattice spacing in x,y,z = 2.8665 2.8665 2.8665
Created orthogonal box = (0.0 0.0 0.0) to (14.3325 14.3325 14.3325)
  2 by 2 by 2 MPI processor grid
Created 250 atoms
  create_atoms CPU = 0.000 seconds
Setting atom values ...
  250 settings made for spin
Neighbor list info ...
  update every 10 steps, delay 20 steps, check yes
  max neighbors/atom: 2000, page size: 100000
  master list distance cutoff = 5.7733670002446
  ghost atom cutoff = 5.7733670002446
  binsize = 2.8866835001223, bins = 5.0 5.0 5.0
  2 neighbor lists, perpetual/occasional/extra = 2 0 0
  (1) pair eam/alloy, perpetual, half/full from (2)
      attributes: half, newton on
      pair build: halffull/newton
      stencil: none
      bin: none
  (2) pair spin/exchange, perpetual
      attributes: full, newton on
      pair build: full/bin/atomonly
      stencil: full/bin/3d
      bin: standard
Setting up Verlet run ...
  Unit style    : metal
  Current step  : 0
  Time step     : 0.0001
Per MPI rank memory allocation (min/avg/max) = 7.742 | 7.742 | 7.742 Mbytes
Step Time v_magnorm v_tmag Temp v_emag KinEng PotEng Press TotEng 
       0            0            1            0    950.03402   -27.791345    30.577582   -1097.7914   -24983.594   -1067.2138 
    5000          0.5   0.50592241    747.24763    493.00764   -8.4198064    15.867834   -1063.7929    23803.479    -1047.925 
   10000            1   0.33855443    810.38841    504.95703   -5.4031639    16.252434    -1060.861    30210.302   -1044.6086 
   15000          1.5   0.18306187    856.84805    540.90283   -3.4485573    17.409377   -1059.6792    32254.212   -1042.2698 
   20000            2   0.23659364    939.40071    515.79894   -3.9213806    16.601389   -1059.0239    27866.535   -1042.4225 
   25000          2.5   0.10345867    988.11517    503.14657   -2.7557451    16.194163   -1057.2328    33530.886   -1041.0386 
   30000            3  0.083938737    886.85663    524.20614   -3.1319476    16.871982   -1057.7692    33570.615   -1040.8972 
   35000          3.5   0.10020103    849.04559    523.11258    -3.333676    16.836784   -1057.7628    31198.873    -1040.926 
   40000            4  0.095924895     1213.965    516.42891   -2.1151737    16.621665   -1055.7718    35307.968   -1039.1501 
   45000          4.5  0.085876556    1223.1967    524.53717    -1.904002    16.882636   -1055.7553    34790.788   -1038.8726 
   50000            5   0.12329667    986.70553     524.1328   -3.1736817    16.869621   -1056.7921    34325.957   -1039.9225 
   55000          5.5   0.19327676    1005.6994    551.01446   -3.4683734    17.734828   -1057.9779    35009.626   -1040.2431 
   60000            6   0.14843562    953.66748    508.35467   -3.1703881     16.36179   -1055.9885    37407.888   -1039.6267 
   65000          6.5   0.24192582    860.41268    548.33505   -4.3962122    17.648589   -1058.0607    36018.761   -1040.4122 
   70000            7   0.12055182    993.06363    589.04025   -2.7773894    18.958718   -1057.3631    36949.998   -1038.4044 
   75000          7.5     0.233233    784.75746    575.00749   -5.1913876    18.507062   -1059.0022    34128.921   -1040.4952 
   80000            8   0.12682522    914.61508    566.80741   -3.1282136    18.243136   -1056.8302    36727.097    -1038.587 
   85000          8.5   0.22547951    1187.4735     568.8169   -2.6808548    18.307813   -1056.4889     36009.87    -1038.181 
   90000            9   0.28397911    1026.4608    529.65241   -3.8604293    17.047274   -1056.3291    39217.914   -1039.2818 
   95000          9.5   0.31687286    780.92666    589.78862   -5.3902868    18.982805   -1058.8645    33207.591   -1039.8817 
  100000           10   0.29768651    806.13474    561.31927   -4.9752346    18.066496   -1057.3369    36170.063   -1039.2704 
Loop time of 72.9698 on 8 procs for 100000 steps with 250 atoms

Performance: 11.841 ns/day, 2.027 hours/ns, 1370.430 timesteps/s
99.9% CPU use with 8 MPI tasks x no OpenMP threads

MPI task timing breakdown:
Section |  min time  |  avg time  |  max time  |%varavg| %total
---------------------------------------------------------------
Pair    | 9.928      | 10.08      | 10.231     |   3.5 | 13.81
Neigh   | 0.17768    | 0.17832    | 0.17894    |   0.1 |  0.24
Comm    | 4.1184     | 4.2644     | 4.3817     |   4.0 |  5.84
Output  | 0.5956     | 0.62995    | 0.66819    |   4.0 |  0.86
Modify  | 57.483     | 57.698     | 57.93      |   2.1 | 79.07
Other   |            | 0.1198     |            |       |  0.16

Nlocal:    31.25 ave 36.0 max 27.0 min
Histogram: 1 0 0 3 1 1 0 1 0 1
Nghost:    563.125 ave 573.0 max 554.0 min
Histogram: 1 0 2 1 1 0 1 0 0 2
Neighs:    963.5 ave 1131.0 max 858.0 min
Histogram: 1 0 3 2 0 0 1 0 0 1
FullNghs:  1927.0 ave 2222.0 max 1668.0 min
Histogram: 1 0 0 3 1 1 0 1 0 1

Total # of neighbors = 15416
Ave neighs/atom = 61.664
Neighbor list builds = 1939
Dangerous builds = 0

Please see the log.cite file for references relevant to this simulation

Total wall time: 0:01:12
