LAMMPS (30 Jun 2020)
Lattice spacing in x,y,z = 2.8665 2.8665 2.8665
Created orthogonal box = (0.0 0.0 0.0) to (14.3325 14.3325 14.3325)
  2 by 2 by 2 MPI processor grid
Created 250 atoms
  create_atoms CPU = 0.000 seconds
Setting atom values ...
  250 settings made for spin
Neighbor list info ...
  update every 10 steps, delay 20 steps, check yes
  max neighbors/atom: 2000, page size: 100000
  master list distance cutoff = 5.7733670002446
  ghost atom cutoff = 5.7733670002446
  binsize = 2.8866835001223, bins = 5.0 5.0 5.0
  2 neighbor lists, perpetual/occasional/extra = 2 0 0
  (1) pair eam/alloy, perpetual, half/full from (2)
      attributes: half, newton on
      pair build: halffull/newton
      stencil: none
      bin: none
  (2) pair spin/exchange, perpetual
      attributes: full, newton on
      pair build: full/bin/atomonly
      stencil: full/bin/3d
      bin: standard
Setting up Verlet run ...
  Unit style    : metal
  Current step  : 0
  Time step     : 0.0001
Per MPI rank memory allocation (min/avg/max) = 7.742 | 7.742 | 7.742 Mbytes
Step Time v_magnorm v_tmag Temp v_emag KinEng PotEng Press TotEng 
       0            0            1            0    1000.0358   -27.791345    32.186929   -1097.7914   -24399.742   -1065.6044 
    5000          0.5   0.48967682    781.09724    518.33594   -7.8563818    16.683045   -1062.4342    26165.766   -1045.7512 
   10000            1   0.37240554    811.16979    550.16303   -5.6791865    17.707424   -1060.6542    31110.901   -1042.9468 
   15000          1.5   0.25039204    1006.0566    544.79313   -3.3925436     17.53459   -1057.9687    35665.169   -1040.4341 
   20000            2   0.19217953    944.79627    547.17784   -3.5057205    17.611343   -1058.1868    28896.002   -1040.5754 
   25000          2.5   0.11947537    1179.5415    550.23799   -2.0865592    17.709837   -1056.4919    33304.109    -1038.782 
   30000            3   0.13244068    1012.1421    522.30592   -2.6605646    16.810821   -1055.5903    38073.666   -1038.7795 
   35000          3.5   0.14114392    910.65564    502.31655   -3.3923703    16.167448   -1055.3955    35919.506   -1039.2281 
   40000            4   0.13485276    1218.6086     548.2562   -2.1585995    17.646051   -1055.9154    35537.198   -1038.2693 
   45000          4.5   0.10337633    1055.1917     555.8737   -2.6292017    17.891226   -1056.2714    36487.499   -1038.3802 
   50000            5  0.058337706    997.55662    562.46098   -2.5629969    18.103243   -1055.9678    37538.885   -1037.8645 
   55000          5.5  0.039419484    949.53236    603.67028   -2.7170979    19.429596   -1056.7693    37418.452   -1037.3397 
   60000            6   0.12173437    1133.5991    587.11476   -2.3268684    18.896744   -1055.7523    37390.676   -1036.8556 
   65000          6.5  0.069106879    1005.3076    586.40219    -2.452027     18.87381   -1055.8857    39852.936   -1037.0119 
   70000            7   0.11288563      787.953    567.18823    -4.141115    18.255393   -1056.1747    39432.522   -1037.9193 
   75000          7.5    0.1279889    1001.4113    585.02349   -3.1857074    18.829435   -1055.9931    37481.324   -1037.1637 
   80000            8   0.15071941    1237.8305    568.90315   -2.1830305    18.310589   -1054.2854    42139.922   -1035.9748 
   85000          8.5  0.092619508    1256.3011    590.26252   -2.0177092    18.998057   -1054.5852    38311.991   -1035.5871 
   90000            9  0.056953088    897.65797    599.55849   -3.2087135    19.297255   -1055.5494     40422.65   -1036.2521 
   95000          9.5  0.058236384    801.67998     578.8784   -3.3442616    18.631651   -1054.9642    39090.736   -1036.3326 
  100000           10  0.095368634    936.48345    584.50417   -3.0580994     18.81272      -1054.5    41151.853   -1035.6873 
Loop time of 74.2597 on 8 procs for 100000 steps with 250 atoms

Performance: 11.635 ns/day, 2.063 hours/ns, 1346.625 timesteps/s
99.9% CPU use with 8 MPI tasks x no OpenMP threads

MPI task timing breakdown:
Section |  min time  |  avg time  |  max time  |%varavg| %total
---------------------------------------------------------------
Pair    | 10.037     | 10.136     | 10.299     |   2.6 | 13.65
Neigh   | 0.1812     | 0.18184    | 0.18259    |   0.1 |  0.24
Comm    | 4.196      | 4.3555     | 4.5314     |   4.7 |  5.87
Output  | 0.063588   | 0.34524    | 0.62958    |  47.4 |  0.46
Modify  | 58.62      | 59.119     | 59.489     |   3.3 | 79.61
Other   |            | 0.1218     |            |       |  0.16

Nlocal:    31.25 ave 36.0 max 28.0 min
Histogram: 1 2 1 1 0 1 0 0 1 1
Nghost:    552.25 ave 573.0 max 538.0 min
Histogram: 2 1 0 1 1 1 1 0 0 1
Neighs:    962.875 ave 1101.0 max 871.0 min
Histogram: 2 1 0 1 2 0 0 1 0 1
FullNghs:  1925.75 ave 2219.0 max 1722.0 min
Histogram: 1 2 1 1 0 1 0 0 1 1

Total # of neighbors = 15406
Ave neighs/atom = 61.624
Neighbor list builds = 1979
Dangerous builds = 0

Please see the log.cite file for references relevant to this simulation

Total wall time: 0:01:14
